ITEM: TIMESTEP
280000
ITEM: NUMBER OF ATOMS
94
ITEM: BOX BOUNDS ff ff ff
-1.0000000000000000e-02 5.9999999999999998e-01
-3.0000000000000001e-03 1.2000000000000000e-02
0.0000000000000000e+00 7.8899999999999998e-02
ITEM: ATOMS id x y z radius
1 0.0123736 0.00194846 0.00718329 0.0015
2 0.0298518 0.00150284 0.00149968 0.0015
3 0.0388812 0.00747499 0.00149968 0.0015
4 0.0135612 0.00149943 0.00446563 0.0015
6 0.00149947 0.00549161 0.00590782 0.0015
7 0.0358086 0.00581834 0.00149968 0.0015
9 0.00149956 0.0014996 0.00149903 0.0015
10 0.00940988 0.00149968 0.00706525 0.0015
11 0.0175529 0.00149997 0.0014995 0.0015
12 0.0144509 0.00150782 0.00149968 0.0015
13 0.0205565 0.00149972 0.00149945 0.0015
14 0.036524 0.00247451 0.00149968 0.0015
16 0.0220625 0.00750003 0.00409645 0.0015
17 0.00591999 0.00750037 0.0040274 0.0015
18 0.0190608 0.00600151 0.00362119 0.0015
19 0.00579559 0.00482739 0.00875053 0.0015
20 0.00660076 0.00149952 0.00883987 0.0015
21 0.00470515 0.00149931 0.00651485 0.0015
22 0.00528791 0.00618655 0.0113759 0.0015
23 0.0120611 0.0067312 0.00393756 0.0015
24 0.0425533 0.00569821 0.00149968 0.0015
25 0.00532819 0.0015397 0.00149911 0.0015
26 0.0104928 0.00750036 0.00149921 0.0015
27 0.001512 0.00750034 0.00813529 0.0015
30 0.0314728 0.00611424 0.00341019 0.0015
31 0.0420429 0.00198246 0.00149966 0.0015
32 0.00682777 0.00149993 0.00409682 0.0015
33 0.0106255 0.00389592 0.00571674 0.0015
34 0.0175563 0.00450078 0.00149935 0.0015
35 0.0220733 0.00149997 0.00408746 0.0015
36 0.026593 0.00750023 0.0014996 0.0015
37 0.00318001 0.00378619 0.00771459 0.0015
38 0.0396823 0.00453751 0.00149968 0.0015
39 0.0155959 0.0074997 0.00376491 0.0015
40 0.0125355 0.00750011 0.00890228 0.0015
42 0.0282093 0.00300405 0.00354329 0.0015
43 0.0205611 0.00750013 0.0014995 0.0015
44 0.0138602 0.00750024 0.00621112 0.0015
45 0.00149949 0.00191662 0.00607809 0.0015
46 0.00270412 0.00750036 0.00403416 0.0015
47 0.00982187 0.00457669 0.00149896 0.0015
48 0.0205572 0.0044996 0.00149931 0.0015
50 0.0145603 0.00464841 0.00149933 0.0015
51 0.0014999 0.00149988 0.00904857 0.0015
52 0.00734913 0.0075001 0.00963675 0.0015
53 0.0107228 0.00750009 0.00650969 0.0015
54 0.00370026 0.00440166 0.00149941 0.0015
55 0.00430708 0.00749749 0.00149898 0.0015
56 0.0136298 0.00750028 0.00149939 0.0015
57 0.0101026 0.00658736 0.010401 0.0015
58 0.0331188 0.00448963 0.00149963 0.0015
59 0.0296214 0.00750011 0.00149963 0.0015
60 0.00747069 0.00149991 0.0117106 0.0015
62 0.0190562 0.00300008 0.00361957 0.0015
63 0.00982977 0.00150099 0.00409538 0.0015
64 0.00748553 0.00710983 0.00149916 0.0015
65 0.00910114 0.00296628 0.00966359 0.0015
67 0.00443543 0.00750032 0.00880793 0.0015
68 0.0165576 0.00149981 0.00432914 0.0015
69 0.0135524 0.00455251 0.00574732 0.0015
70 0.0160573 0.00455205 0.00409696 0.0015
71 0.00149954 0.00504278 0.00985764 0.0015
72 0.0250788 0.00599602 0.00360735 0.0015
73 0.00410272 0.00242128 0.0102213 0.0015
74 0.0177424 0.00750015 0.00586035 0.0015
75 0.0456157 0.00487 0.00149968 0.0015
76 0.0333243 0.00750011 0.00149963 0.0015
77 0.0113317 0.00149958 0.00149919 0.0015
78 0.00832783 0.0015317 0.00149931 0.0015
79 0.0250996 0.0029962 0.00361599 0.0015
80 0.019844 0.00149982 0.00609468 0.0015
82 0.0122026 0.00383617 0.003166 0.0015
85 0.00443506 0.00604177 0.00618676 0.0015
86 0.00823492 0.00459144 0.00404363 0.0015
87 0.00709046 0.0033178 0.00650544 0.0015
88 0.0298108 0.00450613 0.00149954 0.0015
89 0.023557 0.0044995 0.00149951 0.0015
91 0.0034142 0.00149969 0.0038076 0.0015
92 0.022057 0.00450001 0.00409723 0.0015
93 0.00149964 0.00378454 0.00344179 0.0015
94 0.0182888 0.00450064 0.0061011 0.0015
95 0.0266097 0.00149979 0.00149956 0.0015
96 0.00149972 0.00644032 0.00149959 0.0015
98 0.00739709 0.00750029 0.00663762 0.0015
100 0.023564 0.00750005 0.00149956 0.0015
101 0.00910848 0.00535725 0.00785215 0.0015
102 0.00896393 0.00750057 0.00407969 0.0015
103 0.0333641 0.00149986 0.00149968 0.0015
104 0.00259828 0.00750041 0.0111803 0.0015
106 0.0175612 0.00750038 0.00149925 0.0015
107 0.0266018 0.00450038 0.00149957 0.0015
108 0.0235898 0.00149982 0.00149945 0.0015
109 0.00517801 0.00400543 0.00407963 0.0015
110 0.00669372 0.00421052 0.00149913 0.0015
