ITEM: TIMESTEP
280000
ITEM: NUMBER OF ATOMS
630
ITEM: BOX BOUNDS ff ff ff
-1.0000000000000000e-02 5.9999999999999998e-01
-3.0000000000000001e-03 1.2000000000000000e-02
0.0000000000000000e+00 2.1609999999999999e-01
ITEM: ATOMS id x y z radius
2 0.377408 0.00726833 0.00149968 0.0015
3 0.456579 0.00719731 0.00149968 0.0015
4 0.0473131 0.00149987 0.00877841 0.0015
6 0.0342155 0.00750016 0.0140512 0.0015
7 0.00178105 0.00595269 0.0139198 0.0015
8 0.118995 0.00231892 0.00149943 0.0015
9 0.0155383 0.00449454 0.00149873 0.0015
10 0.0598151 0.00491677 0.00876747 0.0015
11 0.168397 0.00442325 0.00149967 0.0015
12 0.0071846 0.00303217 0.0040589 0.0015
13 0.0635469 0.00149947 0.00393083 0.0015
14 0.114364 0.00490222 0.00149948 0.0015
15 0.315298 0.00600373 0.00164667 0.0015
17 0.0512957 0.00461097 0.00718161 0.0015
18 0.03147 0.00149961 0.00803335 0.0015
19 0.308653 0.00162587 0.00149986 0.0015
20 0.0620615 0.00151023 0.00653658 0.0015
21 0.0178484 0.00149972 0.0141691 0.0015
22 0.0070231 0.00149953 0.0166444 0.0015
23 0.0810718 0.00750037 0.00650396 0.0015
24 0.406164 0.0069032 0.00149968 0.0015
25 0.0336022 0.00149989 0.00592371 0.0015
26 0.00935345 0.00535611 0.00382678 0.0015
27 0.0107079 0.00403535 0.00149928 0.0015
28 0.105346 0.00750009 0.00408634 0.0015
29 0.0227653 0.00750002 0.0059641 0.0015
30 0.0145742 0.00501629 0.0174298 0.0015
31 0.0779305 0.00149994 0.0065468 0.0015
32 0.0153204 0.00149975 0.00664461 0.0015
33 0.0403626 0.00495221 0.0125715 0.0015
34 0.102832 0.00322146 0.0058907 0.0015
35 0.293264 0.00160869 0.00152844 0.0015
36 0.0653336 0.0014997 0.00634016 0.0015
37 0.145258 0.00303189 0.00347512 0.0015
38 0.00149951 0.00149943 0.0143916 0.0015
39 0.0130823 0.00621872 0.00149962 0.0015
40 0.182739 0.00549848 0.00159757 0.0015
41 0.0410495 0.00342664 0.00395901 0.0015
42 0.00393739 0.00149989 0.0117161 0.0015
43 0.0485659 0.0049344 0.00414758 0.0015
44 0.00400692 0.00487838 0.0110536 0.0015
45 0.427072 0.0070757 0.00149968 0.0015
46 0.0680188 0.00750036 0.00149904 0.0015
47 0.0300103 0.00485088 0.0146804 0.0015
48 0.0111682 0.0075002 0.0145163 0.0015
49 0.301079 0.00188178 0.00149967 0.0015
50 0.0347695 0.00750008 0.00872965 0.0015
51 0.0488446 0.00750002 0.00149943 0.0015
52 0.12786 0.00154665 0.00348974 0.0015
53 0.0564173 0.00149955 0.0032994 0.0015
54 0.0935873 0.00742607 0.00390006 0.0015
55 0.12186 0.0046305 0.00149964 0.0015
56 0.0451023 0.00401011 0.0120366 0.0015
57 0.0152227 0.00750032 0.00951661 0.0015
58 0.0313882 0.00429111 0.00693887 0.0015
59 0.065318 0.0039188 0.00402188 0.0015
60 0.0686296 0.0024062 0.00149938 0.0015
61 0.0865886 0.00750063 0.00352486 0.0015
62 0.00948087 0.00750109 0.00662403 0.0015
63 0.0139846 0.0014995 0.0093298 0.0015
64 0.169698 0.00737724 0.00149968 0.0015
65 0.00149904 0.00750165 0.00836875 0.0015
66 0.202839 0.00153238 0.00149968 0.0015
67 0.0295837 0.00150233 0.00149955 0.0015
68 0.0716433 0.0022258 0.00149896 0.0015
69 0.0670023 0.00750018 0.00891526 0.0015
70 0.0110141 0.00149933 0.012543 0.0015
71 0.0665965 0.00750012 0.00413961 0.0015
72 0.0312172 0.00750032 0.0139586 0.0015
73 0.0733237 0.00681084 0.00857587 0.0015
74 0.0295741 0.00750067 0.00149796 0.0015
75 0.0253317 0.00171314 0.00149891 0.0015
76 0.0382903 0.00750027 0.0116593 0.0015
77 0.1436 0.0014999 0.00149947 0.0015
78 0.0700882 0.0014998 0.00395901 0.0015
79 0.0121675 0.00149959 0.00690428 0.0015
80 0.0567665 0.00750047 0.0037624 0.0015
82 0.0155681 0.00750014 0.0187869 0.0015
83 0.0533319 0.00149987 0.00844283 0.0015
84 0.00436724 0.00750016 0.00449642 0.0015
85 0.0200729 0.00149967 0.00392897 0.0015
86 0.0520451 0.00745116 0.00657214 0.0015
87 0.120397 0.00149997 0.0040213 0.0015
88 0.0419351 0.00750027 0.012755 0.0015
89 0.0549174 0.00152653 0.00589664 0.0015
90 0.153201 0.00490225 0.00149956 0.0015
91 0.086596 0.00528859 0.00149919 0.0015
92 0.0419608 0.00149929 0.00606815 0.0015
93 0.00834506 0.00316206 0.00892973 0.0015
94 0.248265 0.00466355 0.00149961 0.0015
95 0.0421207 0.00149984 0.00906329 0.0015
96 0.0483871 0.00388252 0.00712178 0.0015
97 0.24658 0.00745645 0.00149968 0.0015
98 0.0397188 0.00543824 0.00574163 0.0015
99 0.0357986 0.00149975 0.00388117 0.0015
100 0.151701 0.00750017 0.00149963 0.0015
101 0.0278988 0.00149975 0.00807838 0.0015
102 0.125616 0.00149974 0.00149948 0.0015
103 0.0138578 0.00149961 0.0169575 0.0015
104 0.0130386 0.00750016 0.00682443 0.0015
105 0.0894659 0.00441434 0.00149942 0.0015
106 0.00857015 0.00750004 0.0199689 0.0015
107 0.049831 0.00431438 0.00149948 0.0015
109 0.0798995 0.00643011 0.00395895 0.0015
110 0.0471525 0.00149887 0.00578333 0.0015
111 0.16667 0.00744968 0.0014996 0.0015
112 0.0376566 0.00428872 0.00385616 0.0015
113 0.0170674 0.00150623 0.00908234 0.0015
114 0.00738899 0.0014981 0.00662614 0.0015
115 0.00765906 0.00451658 0.00149815 0.0015
116 0.0181507 0.00429213 0.00882822 0.0015
117 0.278066 0.00268773 0.00149968 0.0015
118 0.0122292 0.00750054 0.00971207 0.0015
119 0.0174064 0.00715483 0.0164418 0.0015
120 0.0334439 0.00750044 0.00149895 0.0015
121 0.0255604 0.0075005 0.0124852 0.0015
122 0.0567634 0.00501758 0.00544538 0.0015
123 0.0316727 0.00418269 0.00992271 0.0015
125 0.0542939 0.00750026 0.00925818 0.0015
126 0.102908 0.00534712 0.00377553 0.0015
127 0.0849616 0.00277313 0.00149955 0.0015
128 0.0267873 0.00750071 0.00595684 0.0015
129 0.018317 0.00149895 0.00149814 0.0015
130 0.0898121 0.00750025 0.00431635 0.0015
132 0.0764691 0.00656008 0.0037447 0.0015
133 0.16075 0.00150187 0.00149968 0.0015
134 0.0247809 0.00750104 0.0081858 0.0015
135 0.108401 0.0014998 0.00336981 0.0015
136 0.09179 0.00750025 0.0014995 0.0015
137 0.320328 0.00180869 0.00149968 0.0015
138 0.00758391 0.00506188 0.0062312 0.0015
139 0.255014 0.00746163 0.00149968 0.0015
140 0.154702 0.00750009 0.00149968 0.0015
141 0.170707 0.00162181 0.00149968 0.0015
142 0.297808 0.00210707 0.00151189 0.0015
143 0.0997404 0.00750028 0.00526901 0.0015
144 0.301598 0.0049579 0.00153975 0.0015
145 0.348273 0.00184349 0.00149968 0.0015
146 0.134699 0.00282441 0.0036678 0.0015
147 0.0828083 0.00749986 0.00405753 0.0015
149 0.101362 0.00415261 0.00149944 0.0015
150 0.184375 0.00252586 0.00149968 0.0015
151 0.00823136 0.00149941 0.0114232 0.0015
152 0.218667 0.00634884 0.00149968 0.0015
153 0.226431 0.00160979 0.00164039 0.0015
155 0.03451 0.00378045 0.0108099 0.0015
156 0.032589 0.00149979 0.0111367 0.0015
157 0.0973702 0.00399524 0.00526447 0.0015
158 0.0212141 0.00736147 0.0163753 0.0015
159 0.141925 0.00203578 0.00392956 0.0015
160 0.0170929 0.00166013 0.00423094 0.0015
161 0.00486066 0.00160162 0.0187211 0.0015
162 0.00693415 0.00419955 0.0115826 0.0015
163 0.00586073 0.00750072 0.00709663 0.0015
164 0.0356559 0.00643075 0.00321894 0.0015
165 0.129688 0.00532506 0.00354511 0.0015
166 0.0583543 0.00301574 0.0105702 0.0015
167 0.00797931 0.00750012 0.00921961 0.0015
168 0.0427403 0.00537873 0.0107932 0.0015
169 0.0187939 0.00750089 0.00149858 0.0015
170 0.19115 0.00185338 0.00165834 0.0015
171 0.0715305 0.00149992 0.00658934 0.0015
172 0.0444748 0.00153341 0.00443239 0.0015
173 0.00991822 0.00401629 0.0113356 0.0015
174 0.0247728 0.00668131 0.00389199 0.0015
175 0.0585393 0.0038649 0.00332159 0.0015
176 0.0638596 0.0047315 0.00651415 0.0015
177 0.048448 0.00438755 0.0124074 0.0015
178 0.0812421 0.00750011 0.00149931 0.0015
179 0.004513 0.00450074 0.00149906 0.0015
180 0.0951564 0.00149987 0.00548437 0.0015
181 0.0211747 0.00187338 0.0134033 0.0015
182 0.251087 0.00746324 0.00149918 0.0015
183 0.0394021 0.00266542 0.00711184 0.0015
184 0.0683419 0.00422542 0.00391451 0.0015
185 0.0259887 0.00399075 0.00441771 0.0015
186 0.0182705 0.00438155 0.011824 0.0015
187 0.142905 0.00750001 0.00149967 0.0015
188 0.0428197 0.00750079 0.00149824 0.0015
189 0.196835 0.00433754 0.00149968 0.0015
190 0.245569 0.00212488 0.00149968 0.0015
191 0.39003 0.00304252 0.00149968 0.0015
193 0.0408547 0.00149957 0.00149963 0.0015
194 0.118864 0.00749995 0.00149942 0.0015
195 0.0525617 0.00231384 0.0112254 0.0015
196 0.00305133 0.00539969 0.00689814 0.0015
197 0.395573 0.00402187 0.00149968 0.0015
198 0.021134 0.00750038 0.00848073 0.0015
199 0.0920357 0.00168138 0.00626516 0.0015
200 0.123819 0.0031617 0.00323317 0.0015
201 0.0296163 0.00750011 0.0112199 0.0015
202 0.233118 0.00220912 0.00149968 0.0015
203 0.290424 0.00434052 0.00149968 0.0015
204 0.0604787 0.00750049 0.0101386 0.0015
205 0.0859034 0.0014996 0.00507085 0.0015
206 0.229987 0.00209029 0.00149968 0.0015
207 0.0470341 0.00431992 0.00976269 0.0015
208 0.0765741 0.00491414 0.00627798 0.0015
209 0.0101962 0.00551501 0.00875318 0.0015
210 0.0297653 0.00726283 0.00621835 0.0015
211 0.222284 0.00656711 0.00149942 0.0015
212 0.361711 0.00527194 0.00149968 0.0015
213 0.0339814 0.00161444 0.00149849 0.0015
214 0.475068 0.00543609 0.00149968 0.0015
215 0.0120561 0.00381319 0.016326 0.0015
216 0.140417 0.0045936 0.0019536 0.0015
217 0.0398455 0.00301189 0.0103173 0.0015
218 0.0483026 0.00750023 0.00950995 0.0015
219 0.0375004 0.00550655 0.00956143 0.0015
220 0.0207694 0.00411493 0.0073766 0.0015
221 0.242554 0.0015702 0.0014997 0.0015
222 0.0624295 0.00396785 0.00989119 0.0015
223 0.0127869 0.00406299 0.00833349 0.0015
224 0.151891 0.00288465 0.00329132 0.0015
225 0.00149981 0.0042902 0.0163998 0.0015
226 0.189286 0.00516555 0.00149968 0.0015
227 0.0370336 0.00447636 0.00678364 0.0015
228 0.0446351 0.00149926 0.0074269 0.0015
229 0.0876297 0.0035353 0.00370229 0.0015
231 0.0189811 0.00149961 0.0113918 0.0015
232 0.461475 0.00498253 0.00151614 0.0015
233 0.00989775 0.0075003 0.0172789 0.0015
234 0.113161 0.00255684 0.00293122 0.0015
235 0.0443315 0.00573943 0.00339654 0.0015
236 0.0154266 0.0027431 0.0191918 0.0015
237 0.0350852 0.00400173 0.0137455 0.0015
238 0.132977 0.00749995 0.00149982 0.0015
239 0.0832738 0.00149966 0.0036273 0.0015
240 0.0780825 0.0075004 0.00609206 0.0015
241 0.0311607 0.00443896 0.00395199 0.0015
242 0.13444 0.00488117 0.00149959 0.0015
243 0.122735 0.0075001 0.00149949 0.0015
244 0.00436932 0.00749857 0.00149833 0.0015
246 0.193358 0.00458584 0.00150792 0.0015
247 0.00149889 0.00750019 0.00536995 0.0015
248 0.057268 0.00749817 0.00886641 0.0015
249 0.128135 0.00377439 0.00149948 0.0015
250 0.0468252 0.00459859 0.00149968 0.0015
251 0.259066 0.006816 0.00149968 0.0015
252 0.194993 0.00710448 0.00149969 0.0015
253 0.0182565 0.00464577 0.0148122 0.0015
254 0.0137775 0.00149958 0.0137091 0.0015
255 0.114364 0.00668276 0.00396541 0.0015
256 0.0747277 0.00400981 0.00409384 0.0015
257 0.0233796 0.00402445 0.00589597 0.0015
258 0.0342435 0.00434482 0.00787638 0.0015
259 0.0516267 0.00473456 0.00420342 0.0015
260 0.00447672 0.00654192 0.0189517 0.0015
261 0.0172978 0.00679352 0.00399898 0.0015
262 0.0843755 0.00749972 0.00149962 0.0015
263 0.0781607 0.00155491 0.00149941 0.0015
264 0.0222351 0.00750049 0.0135582 0.0015
265 0.0158215 0.00539415 0.0132283 0.0015
266 0.0284031 0.00433739 0.00892368 0.0015
267 0.0685312 0.00149973 0.00653809 0.0015
268 0.08116 0.00150226 0.00149919 0.0015
269 0.0876779 0.00149979 0.00149955 0.0015
270 0.278722 0.00689608 0.00149967 0.0015
271 0.0510191 0.00154409 0.0014989 0.0015
272 0.0536807 0.00750023 0.00405827 0.0015
273 0.298998 0.00678905 0.00149968 0.0015
274 0.0332357 0.00646337 0.0060089 0.0015
275 0.0415479 0.00750049 0.00708766 0.0015
276 0.101196 0.00149991 0.00405804 0.0015
277 0.0143873 0.00750032 0.00414605 0.0015
278 0.243041 0.00678766 0.00149968 0.0015
279 0.0620152 0.00746727 0.00150815 0.0015
280 0.00149902 0.0075005 0.011367 0.0015
281 0.0315078 0.00750082 0.00378917 0.0015
282 0.102762 0.00149981 0.00149944 0.0015
283 0.00681864 0.0040386 0.0188651 0.0015
284 0.109864 0.00750023 0.00149945 0.0015
285 0.0385936 0.00750072 0.00760607 0.0015
286 0.0685654 0.00486788 0.00892056 0.0015
287 0.0326148 0.00750048 0.0113047 0.0015
288 0.103902 0.00702941 0.0014994 0.0015
289 0.00622666 0.00149954 0.0136541 0.0015
290 0.140941 0.0074974 0.00376705 0.0015
291 0.00461185 0.00451048 0.00449639 0.0015
292 0.00590316 0.0014996 0.00945037 0.0015
293 0.0328831 0.00455351 0.00149923 0.0015
294 0.0897366 0.00149976 0.00434676 0.0015
295 0.0564224 0.00149974 0.00849138 0.0015
296 0.0235767 0.00169725 0.00393079 0.0015
297 0.0398395 0.00716047 0.00149902 0.0015
298 0.130104 0.00150084 0.00149956 0.0015
299 0.0128932 0.00750046 0.0174292 0.0015
300 0.122184 0.00506853 0.00487241 0.0015
301 0.0395074 0.00417933 0.00149899 0.0015
302 0.023149 0.00745256 0.0107019 0.0015
303 0.0528302 0.00425416 0.00149895 0.0015
304 0.0554413 0.00750041 0.00648672 0.0015
305 0.0992555 0.00527691 0.00331478 0.0015
306 0.0459434 0.00421827 0.00541581 0.0015
307 0.146927 0.00455124 0.00149951 0.0015
308 0.115576 0.00149993 0.00149955 0.0015
309 0.058816 0.00149948 0.00149889 0.0015
310 0.191596 0.00742033 0.00149968 0.0015
311 0.101163 0.00750028 0.00262813 0.0015
312 0.131533 0.0041384 0.00149964 0.0015
313 0.00998809 0.0045562 0.0142844 0.0015
314 0.294866 0.006792 0.00149968 0.0015
315 0.104409 0.00149973 0.00400678 0.0015
316 0.00149947 0.00149944 0.0099689 0.0015
317 0.0850214 0.00750009 0.00608246 0.0015
318 0.0305882 0.00226537 0.0132734 0.0015
319 0.0294355 0.00450394 0.00149934 0.0015
320 0.0407797 0.00750045 0.00998667 0.0015
321 0.199018 0.00164572 0.00149968 0.0015
322 0.115864 0.00750021 0.00149953 0.0015
323 0.0157947 0.00750023 0.00149864 0.0015
324 0.106402 0.00371639 0.00367246 0.0015
326 0.0715493 0.00750037 0.00625747 0.0015
327 0.138976 0.00747013 0.00149986 0.0015
330 0.0553656 0.00323865 0.0106953 0.0015
331 0.00736857 0.00750113 0.00149895 0.0015
332 0.0152218 0.00399547 0.00443846 0.0015
333 0.0974941 0.00149959 0.00360471 0.0015
334 0.0230817 0.00149983 0.0161395 0.0015
335 0.239585 0.00242859 0.00149968 0.0015
336 0.0717182 0.00750013 0.00149942 0.0015
337 0.018195 0.00460223 0.00584086 0.0015
338 0.038327 0.00750053 0.00406612 0.0015
339 0.0698679 0.00513847 0.00149907 0.0015
340 0.0156604 0.00321984 0.0152876 0.0015
341 0.0358274 0.00397881 0.00149935 0.0015
342 0.21247 0.00749337 0.00149968 0.0015
343 0.0561569 0.00388438 0.00149912 0.0015
344 0.00482786 0.00299058 0.00708032 0.0015
345 0.0975211 0.00363582 0.00149932 0.0015
346 0.0125933 0.00372477 0.0192758 0.0015
347 0.176595 0.00723102 0.00149968 0.0015
348 0.0494361 0.00750017 0.0122871 0.0015
349 0.0636882 0.00676691 0.00408509 0.0015
350 0.282144 0.00634289 0.0016306 0.0015
351 0.108466 0.0038443 0.00149954 0.0015
352 0.0333887 0.00149982 0.014028 0.0015
353 0.00993348 0.00316058 0.00578667 0.0015
354 0.124857 0.00537877 0.00149952 0.0015
356 0.0373358 0.00149965 0.00967588 0.0015
357 0.00423966 0.00374089 0.0138193 0.0015
358 0.1588 0.00364041 0.00231031 0.0015
359 0.236608 0.00176858 0.0015341 0.0015
360 0.115864 0.00408484 0.00396531 0.0015
361 0.0188409 0.0014999 0.00666345 0.0015
362 0.0700009 0.00750018 0.00882651 0.0015
363 0.00149978 0.00463107 0.00149892 0.0015
364 0.111388 0.00452332 0.00149953 0.0015
365 0.0234407 0.0040881 0.0146662 0.0015
366 0.0530427 0.00479719 0.00961261 0.0015
367 0.0764306 0.00150496 0.00394902 0.0015
368 0.36853 0.00156826 0.00149998 0.0015
369 0.156861 0.00149993 0.00149973 0.0015
370 0.0292199 0.00458352 0.0117992 0.0015
371 0.060321 0.00149962 0.00409356 0.0015
372 0.0285635 0.00427891 0.00592937 0.0015
373 0.0837035 0.00333399 0.00596142 0.0015
374 0.143512 0.00449854 0.00149965 0.0015
375 0.00149971 0.00352561 0.0121805 0.0015
376 0.148427 0.00302742 0.00360321 0.0015
377 0.146917 0.0015012 0.00149969 0.0015
378 0.0360495 0.00750033 0.00601701 0.0015
379 0.10436 0.00403904 0.00149944 0.0015
380 0.0683849 0.00664931 0.00639285 0.0015
381 0.0208912 0.00428184 0.0103686 0.0015
382 0.326895 0.00728199 0.00149968 0.0015
383 0.00834492 0.0014997 0.0193372 0.0015
384 0.076222 0.00418352 0.00149911 0.0015
385 0.0274516 0.0014997 0.00360974 0.0015
386 0.0596622 0.00149975 0.00833668 0.0015
387 0.00421624 0.00750057 0.0126351 0.0015
388 0.174261 0.00295922 0.00163534 0.0015
389 0.0200821 0.00149982 0.0161715 0.0015
390 0.282286 0.00161115 0.00149968 0.0015
391 0.129977 0.0075002 0.00149959 0.0015
392 0.0262123 0.00263863 0.0102817 0.0015
393 0.0732445 0.00289941 0.00861477 0.0015
394 0.156201 0.00490184 0.00149966 0.0015
395 0.0747019 0.00159723 0.00149936 0.0015
396 0.135976 0.00749605 0.00151403 0.0015
397 0.0517324 0.0055721 0.0121972 0.0015
398 0.0280427 0.00730508 0.00867379 0.0015
399 0.00823621 0.00692447 0.0148491 0.0015
400 0.0748158 0.00149981 0.00647688 0.0015
401 0.0260072 0.00562963 0.010184 0.0015
402 0.149924 0.00149972 0.00149952 0.0015
403 0.00964391 0.00172095 0.0152021 0.0015
404 0.0208458 0.0048536 0.0133125 0.0015
405 0.061807 0.00173618 0.00149912 0.0015
406 0.0953845 0.00750025 0.0014995 0.0015
408 0.0323956 0.00488049 0.012749 0.0015
409 0.0470169 0.00750044 0.00426018 0.0015
410 0.00736627 0.00750032 0.00449773 0.0015
411 0.0317855 0.00749676 0.00842249 0.0015
412 0.00149966 0.00163168 0.00149832 0.0015
413 0.00149953 0.00750069 0.00237056 0.0015
414 0.0113937 0.00750017 0.00431551 0.0015
415 0.0667809 0.00215365 0.00888495 0.0015
416 0.0413258 0.00745627 0.00409763 0.0015
417 0.0069045 0.00750047 0.0174742 0.0015
418 0.117383 0.00149968 0.00389336 0.0015
419 0.0123358 0.00464715 0.00394331 0.0015
420 0.095465 0.00502191 0.00318742 0.0015
421 0.138274 0.00270848 0.00340512 0.0015
422 0.0968879 0.00750021 0.00409911 0.0015
423 0.0172503 0.00149942 0.0171607 0.0015
424 0.126977 0.00750031 0.00149939 0.0015
425 0.149589 0.00671708 0.00348031 0.0015
426 0.0831945 0.00573818 0.00768149 0.0015
427 0.00422845 0.00750024 0.00961321 0.0015
428 0.112864 0.00750022 0.00149951 0.0015
429 0.178458 0.0015433 0.00149968 0.0015
431 0.0264359 0.0045022 0.00149805 0.0015
432 0.0480147 0.00150171 0.00149968 0.0015
433 0.202988 0.00475605 0.00151383 0.0015
434 0.181462 0.00167729 0.00149968 0.0015
435 0.386245 0.00428707 0.0015079 0.0015
436 0.0443186 0.00428607 0.00848887 0.0015
437 0.0877672 0.00578335 0.00568364 0.0015
438 0.110746 0.00149987 0.00149951 0.0015
439 0.117364 0.00668248 0.00396505 0.0015
440 0.201142 0.00740657 0.00149968 0.0015
441 0.0210997 0.00149939 0.0092689 0.0015
444 0.091584 0.00523725 0.00345767 0.0015
445 0.0544616 0.00378151 0.00397137 0.0015
446 0.106865 0.00750001 0.00149959 0.0015
447 0.0218289 0.00149927 0.00635987 0.0015
448 0.0387728 0.00149937 0.00426891 0.0015
449 0.0208099 0.00437057 0.00438893 0.0015
450 0.136294 0.00150011 0.00149965 0.0015
451 0.0698681 0.00704373 0.00381584 0.0015
452 0.0109792 0.00149965 0.0179023 0.0015
453 0.0828273 0.00492962 0.00149929 0.0015
454 0.013535 0.00152353 0.00423525 0.0015
455 0.00749636 0.00149975 0.00149933 0.0015
456 0.0796652 0.00149927 0.00409955 0.0015
457 0.0181313 0.00729607 0.00881148 0.0015
458 0.122022 0.00149979 0.00149952 0.0015
459 0.106055 0.00152883 0.00149953 0.0015
460 0.00149959 0.00393546 0.0193781 0.0015
461 0.515458 0.00169584 0.00182173 0.0015
462 0.234298 0.00504358 0.00149968 0.0015
463 0.035452 0.00654567 0.0114904 0.0015
464 0.0996308 0.00150066 0.00149942 0.0015
465 0.0933224 0.00377461 0.00149913 0.0015
466 0.161942 0.00749946 0.00149964 0.0015
467 0.0263843 0.00750096 0.00149904 0.0015
468 0.230336 0.00747748 0.00152747 0.0015
469 0.0814827 0.00388202 0.00396737 0.0015
470 0.0568738 0.00446372 0.00839134 0.0015
471 0.0264147 0.00423916 0.0128105 0.0015
472 0.0983842 0.00750024 0.00149934 0.0015
473 0.00716821 0.00750028 0.0121065 0.0015
474 0.0458451 0.00750056 0.00149905 0.0015
475 0.0883482 0.00297371 0.00656 0.0015
476 0.0429413 0.00475975 0.00586676 0.0015
477 0.057922 0.00153378 0.00589374 0.0015
478 0.0246139 0.00678856 0.0152412 0.0015
479 0.0887947 0.00733816 0.00149927 0.0015
480 0.0236424 0.00456449 0.0117117 0.0015
481 0.137444 0.00487598 0.00150062 0.0015
482 0.119596 0.00450528 0.0034633 0.0015
483 0.0630402 0.00669498 0.00880135 0.0015
484 0.0358111 0.00149936 0.012259 0.0015
485 0.0344654 0.00149917 0.00879657 0.0015
486 0.0277198 0.00149966 0.0126114 0.0015
487 0.0202382 0.00705457 0.0113079 0.0015
488 0.163643 0.0023388 0.00149825 0.0015
489 0.0732927 0.00484228 0.00149968 0.0015
490 0.0128707 0.00349029 0.0112769 0.0015
491 0.065019 0.00750021 0.00149928 0.0015
492 0.171392 0.00477936 0.00149969 0.0015
493 0.00149974 0.00149894 0.00449339 0.0015
494 0.0797251 0.00456354 0.00630083 0.0015
495 0.216226 0.00179293 0.00149968 0.0015
496 0.0327264 0.00396853 0.0155982 0.0015
498 0.204752 0.00749224 0.00149968 0.0015
499 0.00414178 0.0014996 0.0158106 0.0015
500 0.0411752 0.00477843 0.00829085 0.0015
501 0.172836 0.00745305 0.00149968 0.0015
502 0.00260277 0.0014996 0.0207372 0.0015
504 0.153859 0.00150056 0.00149968 0.0015
505 0.067089 0.00149978 0.00390803 0.0015
506 0.00924936 0.00457282 0.017191 0.0015
507 0.149983 0.00449893 0.00149963 0.0015
508 0.14025 0.00149988 0.00149947 0.0015
509 0.563506 0.00252215 0.00149968 0.0015
510 0.0376213 0.00150046 0.0014992 0.0015
511 0.206001 0.00476442 0.00149968 0.0015
512 0.0147567 0.00750049 0.0150791 0.0015
513 0.0489244 0.00750034 0.0065756 0.0015
514 0.0653024 0.00149986 0.00149902 0.0015
515 0.108374 0.00597622 0.00360953 0.0015
517 0.0509388 0.00166115 0.00664138 0.0015
518 0.187884 0.00166054 0.00149968 0.0015
520 0.133104 0.00150034 0.00149949 0.0015
521 0.0439717 0.00750035 0.0088542 0.0015
522 0.002744 0.00750062 0.0163013 0.0015
523 0.161548 0.00452585 0.0014997 0.0015
524 0.00604045 0.00508014 0.00885799 0.0015
525 0.145191 0.00640071 0.00310086 0.0015
526 0.0448034 0.00149984 0.0104217 0.0015
527 0.021831 0.00150656 0.00149911 0.0015
528 0.0425572 0.00424157 0.00149856 0.0015
529 0.0480969 0.00149996 0.0116738 0.0015
530 0.0172958 0.00750065 0.0116847 0.0015
531 0.0601935 0.00641782 0.00388713 0.0015
532 0.215485 0.00744424 0.00149968 0.0015
533 0.0638483 0.00149975 0.00894617 0.0015
534 0.072932 0.00483984 0.00634865 0.0015
535 0.0715057 0.00413918 0.00380457 0.0015
537 0.0209732 0.00750035 0.00355903 0.0015
538 0.00530044 0.00638446 0.0151987 0.0015
539 0.0366616 0.00149983 0.00675332 0.0015
540 0.00449657 0.00150097 0.00149923 0.0015
541 0.0495168 0.00209176 0.00403589 0.0015
542 0.0637017 0.00406232 0.00149933 0.0015
543 0.0540184 0.00149979 0.00149914 0.0015
544 0.397461 0.00733562 0.00191452 0.0015
545 0.179996 0.00727072 0.00155366 0.0015
546 0.0375905 0.00390882 0.0120982 0.0015
547 0.0906767 0.00157576 0.00149939 0.0015
548 0.198101 0.0072853 0.00149968 0.0015
549 0.00184926 0.00267129 0.0072306 0.0015
550 0.0780892 0.00403791 0.00384196 0.0015
551 0.0297139 0.00196588 0.0104199 0.0015
552 0.0155631 0.00462934 0.00734938 0.0015
553 0.0521164 0.00750003 0.00149888 0.0015
554 0.0107624 0.00149972 0.00955405 0.0015
555 0.0234622 0.0040713 0.00149968 0.0015
556 0.0206609 0.00515387 0.00149853 0.0015
557 0.0249694 0.0015001 0.0138083 0.0015
558 0.0607701 0.00469802 0.00149861 0.0015
559 0.111364 0.00638941 0.00384799 0.0015
560 0.00149947 0.00690668 0.018965 0.0015
561 0.066666 0.00482287 0.0014994 0.0015
562 0.164373 0.00552668 0.00161971 0.0015
563 0.124856 0.00750011 0.00362073 0.0015
564 0.0160586 0.00750049 0.0066366 0.0015
565 0.0542643 0.00426801 0.00692465 0.0015
566 0.0233307 0.00493796 0.0087521 0.0015
567 0.25032 0.00229208 0.00157895 0.0015
568 0.00429036 0.0039659 0.0204774 0.0015
569 0.0239335 0.00201722 0.00843301 0.0015
571 0.0181875 0.00416007 0.002874 0.0015
572 0.0232977 0.00149969 0.0113178 0.0015
573 0.0814026 0.00149981 0.00654472 0.0015
574 0.0138955 0.00750066 0.012206 0.0015
575 0.0296536 0.00149929 0.0056462 0.0015
576 0.0175048 0.00443761 0.0177088 0.0015
577 0.0192566 0.00750031 0.0141065 0.0015
578 0.0442687 0.00750028 0.00582399 0.0015
579 0.00972849 0.00404805 0.0201052 0.0015
580 0.00165451 0.00149948 0.0174878 0.0015
581 0.0782413 0.00747872 0.00149968 0.0015
582 0.117364 0.00490225 0.00149949 0.0015
583 0.45771 0.00199935 0.00155156 0.0015
584 0.0587357 0.00750016 0.00149947 0.0015
585 0.00149976 0.00449841 0.00449499 0.0015
586 0.0952859 0.0015007 0.00149968 0.0015
588 0.0209239 0.00437735 0.016273 0.0015
589 0.074992 0.00750031 0.00618009 0.0015
590 0.0669254 0.00403345 0.00655165 0.0015
591 0.0259551 0.00489498 0.00727674 0.0015
593 0.0730873 0.00149949 0.00402543 0.0015
594 0.061723 0.00750031 0.00622936 0.0015
595 0.0392204 0.0014996 0.0128311 0.0015
596 0.167498 0.00152588 0.00149969 0.0015
597 0.0499877 0.00483254 0.00987169 0.0015
598 0.285087 0.00458038 0.00149968 0.0015
599 0.0847042 0.0051863 0.00382487 0.0015
600 0.0650019 0.00750033 0.00667998 0.0015
601 0.209085 0.00452059 0.00149968 0.0015
602 0.00442318 0.00420843 0.0170675 0.0015
603 0.199966 0.00454365 0.00149968 0.0015
604 0.0231514 0.00747698 0.00149838 0.0015
605 0.00712998 0.00401521 0.0150147 0.0015
606 0.0123102 0.00149955 0.00149856 0.0015
607 0.0502126 0.00149988 0.00954715 0.0015
608 0.126716 0.00502594 0.003827 0.0015
609 0.0700104 0.00410607 0.00640461 0.0015
611 0.0549925 0.00664865 0.00149903 0.0015
612 0.391849 0.00714959 0.00149976 0.0015
613 0.0369699 0.00631184 0.0140762 0.0015
614 0.0153114 0.00150008 0.00149968 0.0015
615 0.206058 0.00156426 0.00149968 0.0015
616 0.225364 0.00672178 0.00149968 0.0015
617 0.0256851 0.0014982 0.006055 0.0015
618 0.209786 0.00154108 0.00160498 0.0015
619 0.0929773 0.00149956 0.0034229 0.0015
620 0.147477 0.00750024 0.00149951 0.0015
621 0.0504816 0.00750041 0.00401281 0.0015
622 0.0525182 0.00149979 0.00409647 0.0015
623 0.0128822 0.00515316 0.0137732 0.0015
624 0.0766077 0.00680185 0.00860912 0.0015
625 0.0271621 0.00523429 0.0155398 0.0015
626 0.1208 0.00750021 0.00379115 0.0015
627 0.158828 0.00713754 0.00172712 0.0015
628 0.0341655 0.00400111 0.00415404 0.0015
629 0.0423975 0.00259001 0.011844 0.0015
630 0.0160496 0.00209097 0.0118424 0.0015
631 0.0513022 0.00750012 0.00947785 0.0015
632 0.015487 0.00463 0.0103474 0.0015
633 0.0798351 0.00471534 0.00149908 0.0015
634 0.027981 0.0060782 0.00360203 0.0015
635 0.0936056 0.00406344 0.00533739 0.0015
636 0.0747179 0.00750047 0.00149892 0.0015
638 0.0193425 0.00750029 0.00607562 0.0015
639 0.207908 0.00735262 0.00149968 0.0015
640 0.0732192 0.00659773 0.00393492 0.0015
641 0.010368 0.00749628 0.00149839 0.0015
642 0.0282188 0.00749474 0.0138744 0.0015
643 0.0654833 0.0049159 0.00902958 0.0015
644 0.0458516 0.00674853 0.0110675 0.0015
645 0.0438543 0.00152116 0.00149875 0.0015
646 0.0317853 0.00149984 0.00353705 0.0015
647 0.0114035 0.00652265 0.019842 0.0015
648 0.0463812 0.00625971 0.00756918 0.0015
649 0.0284573 0.0023821 0.0153817 0.0015
650 0.00309416 0.00750016 0.0214354 0.0015
651 0.28602 0.00157662 0.00149968 0.0015
652 0.00149962 0.00469247 0.00941786 0.0015
653 0.058566 0.00750024 0.00616221 0.0015
654 0.0599032 0.0037843 0.00599166 0.0015
655 0.00990357 0.00149983 0.00328887 0.0015
656 0.00450009 0.00149965 0.00449845 0.0015
657 0.0763266 0.00301022 0.00858281 0.0015
658 0.0621888 0.00416912 0.00408745 0.0015
659 0.264019 0.00696795 0.00159897 0.0015
660 0.0101019 0.00697981 0.0117613 0.0015
