ITEM: TIMESTEP
280000
ITEM: NUMBER OF ATOMS
421
ITEM: BOX BOUNDS ff ff ff
-1.0000000000000000e-02 5.9999999999999998e-01
-3.0000000000000001e-03 1.2000000000000000e-02
0.0000000000000000e+00 1.6120000000000001e-01
ITEM: ATOMS id x y z radius
2 0.0893846 0.00474602 0.00149954 0.0015
3 0.0784031 0.00748355 0.0014995 0.0015
4 0.0122066 0.00433116 0.0184214 0.0015
6 0.0350035 0.0015216 0.00809735 0.0015
7 0.0244798 0.00149998 0.00409702 0.0015
8 0.166935 0.00467911 0.00157507 0.0015
9 0.00149872 0.00150368 0.00652227 0.0015
10 0.101747 0.00458092 0.00149968 0.0015
11 0.106586 0.0075 0.00149968 0.0015
12 0.0121394 0.00366561 0.00347647 0.0015
13 0.0414468 0.00635804 0.0014997 0.0015
14 0.0628769 0.00750022 0.00149931 0.0015
15 0.0629235 0.00149968 0.00149929 0.0015
17 0.0411114 0.00149977 0.00609719 0.0015
18 0.0113823 0.00149942 0.0145731 0.0015
19 0.0524258 0.0040973 0.00149927 0.0015
20 0.0236335 0.00353898 0.00881986 0.0015
21 0.0182335 0.00461374 0.0125096 0.0015
22 0.0100995 0.0075008 0.0146658 0.0015
23 0.0461896 0.00429324 0.00622598 0.0015
24 0.0844028 0.00750011 0.00149962 0.0015
25 0.067467 0.00424476 0.00149958 0.0015
26 0.00428649 0.00428711 0.00259929 0.0015
27 0.0413249 0.00750034 0.0069596 0.0015
28 0.0126586 0.00150078 0.005497 0.0015
29 0.0268536 0.00750014 0.00873179 0.0015
30 0.0430665 0.00701563 0.00456668 0.0015
31 0.0345492 0.00149926 0.00304504 0.0015
32 0.090822 0.00750009 0.00149962 0.0015
33 0.0844964 0.0053655 0.00360518 0.0015
34 0.0274896 0.00486828 0.00592022 0.0015
35 0.0413706 0.00640191 0.0116991 0.0015
36 0.00731679 0.00150027 0.0122077 0.0015
37 0.0044223 0.00150013 0.00149781 0.0015
38 0.0864043 0.00440363 0.0014996 0.0015
39 0.00447926 0.00750022 0.0131454 0.0015
40 0.0142389 0.00149941 0.00804651 0.0015
41 0.0891123 0.00664021 0.00380964 0.0015
42 0.0014993 0.00150654 0.0155181 0.0015
43 0.0304808 0.00161165 0.00409405 0.0015
44 0.0254454 0.00565114 0.00378497 0.0015
45 0.0614271 0.00749771 0.00412485 0.0015
46 0.0704585 0.00446619 0.00149939 0.0015
47 0.171067 0.00237431 0.00149968 0.0015
48 0.0874026 0.0075001 0.00149961 0.0015
49 0.3357 0.00616565 0.00149968 0.0015
50 0.123146 0.00357093 0.00149968 0.0015
51 0.141923 0.00480508 0.00149968 0.0015
52 0.0321083 0.00149936 0.00888041 0.0015
53 0.0539259 0.00667004 0.0065617 0.0015
54 0.0616777 0.00423 0.00149955 0.0015
55 0.00974126 0.00294751 0.0111869 0.0015
56 0.059888 0.00750003 0.00669951 0.0015
57 0.0120162 0.00520069 0.0148508 0.0015
58 0.0353528 0.00466958 0.005653 0.0015
59 0.00484862 0.0066955 0.0102799 0.0015
60 0.00420085 0.00487307 0.0147248 0.0015
61 0.0446478 0.00502651 0.00869229 0.0015
62 0.00150001 0.00448968 0.0164844 0.0015
63 0.0198497 0.0015 0.00149967 0.0015
64 0.0229807 0.00149935 0.00149875 0.0015
65 0.0355919 0.00750022 0.00802195 0.0015
66 0.00149985 0.00434616 0.0194804 0.0015
67 0.021424 0.00749884 0.00657661 0.0015
68 0.0313093 0.00149983 0.0117715 0.0015
69 0.0143439 0.0041412 0.00149877 0.0015
70 0.0100106 0.00149969 0.00408788 0.0015
71 0.0254588 0.00750012 0.0166474 0.0015
72 0.0293164 0.00749973 0.00702141 0.0015
73 0.100282 0.00167813 0.00149968 0.0015
74 0.00731567 0.00150005 0.0182064 0.0015
76 0.0148681 0.00152135 0.0155757 0.0015
77 0.0199033 0.00149976 0.0142287 0.0015
78 0.00718261 0.00750062 0.00274555 0.0015
79 0.0125722 0.00640881 0.00234243 0.0015
80 0.0770294 0.00747597 0.00416601 0.0015
81 0.0507587 0.00150013 0.00658935 0.0015
82 0.0370995 0.00252419 0.00999454 0.0015
83 0.0953832 0.00473917 0.00153159 0.0015
84 0.0692572 0.00154258 0.00149957 0.0015
85 0.0614238 0.0014999 0.00409717 0.0015
86 0.00675382 0.00494719 0.013153 0.0015
87 0.211451 0.00329872 0.00149968 0.0015
88 0.00772149 0.00439409 0.0189452 0.0015
89 0.0316068 0.00443207 0.0101257 0.0015
90 0.0693947 0.0074992 0.0014995 0.0015
91 0.00149956 0.00150497 0.0185172 0.0015
92 0.0292175 0.00512641 0.00348232 0.0015
93 0.0126123 0.00750026 0.0129982 0.0015
94 0.0153205 0.00422384 0.00741193 0.0015
95 0.0539254 0.00149961 0.00149908 0.0015
96 0.0170019 0.00149959 0.0134683 0.0015
97 0.0142459 0.0070235 0.00733028 0.0015
98 0.0316383 0.00750022 0.0125207 0.0015
99 0.0126179 0.00475889 0.00622699 0.0015
101 0.0569248 0.00149972 0.00149948 0.0015
102 0.0187337 0.00750016 0.0164369 0.0015
103 0.0973367 0.00733586 0.00149968 0.0015
104 0.0754032 0.00748742 0.00149952 0.0015
105 0.0115219 0.00149899 0.00149792 0.0015
106 0.103591 0.00733707 0.00149968 0.0015
107 0.0199149 0.00149943 0.00662346 0.0015
108 0.00447983 0.0071393 0.00149802 0.0015
109 0.0371438 0.00493303 0.00804493 0.0015
110 0.00759322 0.00745668 0.0117179 0.0015
111 0.0167591 0.00750006 0.0141291 0.0015
112 0.088668 0.00285051 0.00371132 0.0015
113 0.0708057 0.00149998 0.00406835 0.0015
114 0.129465 0.00732259 0.00149968 0.0015
115 0.0322939 0.00730005 0.00732357 0.0015
116 0.0276947 0.00750148 0.00449816 0.0015
117 0.0476328 0.00405422 0.0088445 0.0015
119 0.0259804 0.00151173 0.0014996 0.0015
120 0.0427618 0.00363134 0.00149873 0.0015
121 0.0442205 0.00750018 0.00149958 0.0015
122 0.00712853 0.00481535 0.00740844 0.0015
123 0.0458074 0.00154001 0.00877041 0.0015
124 0.0305309 0.00720676 0.00974828 0.0015
125 0.0554253 0.00409771 0.00149926 0.0015
126 0.00794178 0.00149885 0.0092744 0.0015
127 0.147631 0.00453201 0.00149968 0.0015
128 0.0371725 0.00708274 0.00406223 0.0015
129 0.119314 0.00744142 0.00149968 0.0015
130 0.0288951 0.00441017 0.0114077 0.0015
131 0.180054 0.00464301 0.00149968 0.0015
132 0.110878 0.00456482 0.00149968 0.0015
133 0.058502 0.00472016 0.00652776 0.0015
134 0.0923839 0.00468447 0.00149968 0.0015
135 0.0121903 0.00149927 0.0102376 0.0015
136 0.024686 0.00380768 0.00602473 0.0015
138 0.00424932 0.00411655 0.0176266 0.0015
139 0.0691899 0.00402913 0.00418213 0.0015
140 0.0520679 0.00583672 0.00876457 0.0015
141 0.020997 0.00347626 0.0122551 0.0015
142 0.0401868 0.00177261 0.009987 0.0015
143 0.00442744 0.00409398 0.00563324 0.0015
144 0.00731479 0.00149909 0.015207 0.0015
145 0.0570164 0.00485797 0.00392547 0.0015
146 0.0231053 0.00750118 0.00409393 0.0015
147 0.0157847 0.0046104 0.00408751 0.0015
148 0.0295742 0.00279888 0.0138451 0.0015
150 0.0406085 0.00407743 0.0075466 0.0015
151 0.0014991 0.00750035 0.00449722 0.0015
152 0.0237645 0.00159666 0.0167704 0.0015
153 0.0313559 0.00443204 0.00149859 0.0015
154 0.0662578 0.00149957 0.00149925 0.0015
155 0.0156908 0.00194097 0.00545181 0.0015
156 0.00255922 0.00420046 0.022283 0.0015
157 0.0035957 0.00149939 0.00437973 0.0015
158 0.0794662 0.00454943 0.0014995 0.0015
159 0.0871573 0.00149982 0.0014996 0.0015
160 0.00447662 0.0075003 0.019144 0.0015
161 0.00149964 0.00437363 0.00749087 0.0015
162 0.0783553 0.00150119 0.00149949 0.0015
163 0.00750462 0.00503327 0.0218817 0.0015
164 0.0334877 0.00750002 0.0101592 0.0015
165 0.0225346 0.0045571 0.00407472 0.0015
166 0.00153489 0.00153713 0.0245157 0.0015
167 0.0479256 0.00149951 0.00149917 0.0015
168 0.114588 0.00455917 0.00149968 0.0015
169 0.254938 0.00628394 0.00165811 0.0015
171 0.120343 0.00150764 0.00149968 0.0015
172 0.0554943 0.00411805 0.00640185 0.0015
173 0.00152622 0.00749992 0.0104947 0.0015
174 0.0539132 0.00748215 0.00149921 0.0015
175 0.116129 0.00740504 0.00149968 0.0015
176 0.0237041 0.00149975 0.0110187 0.0015
177 0.0540475 0.00149952 0.00662026 0.0015
178 0.295731 0.00215712 0.0017012 0.0015
179 0.0714741 0.00595264 0.00389875 0.0015
180 0.0176932 0.00750102 0.00598945 0.0015
181 0.0427847 0.00149933 0.0036081 0.0015
182 0.03445 0.00750096 0.00524857 0.0015
183 0.011062 0.00175307 0.0201837 0.0015
184 0.104742 0.0044049 0.00149967 0.0015
185 0.0294237 0.00601026 0.0138893 0.0015
186 0.041061 0.00392981 0.00395106 0.0015
187 0.00149968 0.00748969 0.0164928 0.0015
188 0.0214181 0.00177332 0.00404326 0.0015
189 0.0392439 0.00461502 0.0101633 0.0015
190 0.0328099 0.00380138 0.00404543 0.0015
191 0.00417814 0.00419956 0.0118019 0.0015
192 0.0159188 0.00149993 0.0106715 0.0015
193 0.040142 0.00750041 0.00411349 0.0015
194 0.0601837 0.00476864 0.00404435 0.0015
195 0.0157564 0.00750012 0.0112645 0.0015
197 0.0130292 0.00433577 0.0121633 0.0015
198 0.0509766 0.00672373 0.00149944 0.0015
199 0.011664 0.0075 0.0172249 0.0015
200 0.0554249 0.00230586 0.00396895 0.0015
201 0.216914 0.00224566 0.00179651 0.0015
202 0.0569084 0.00731925 0.00149913 0.0015
203 0.0161525 0.00667959 0.0177256 0.0015
204 0.02898 0.00149972 0.00149928 0.0015
205 0.0524256 0.00401385 0.00640924 0.0015
206 0.00819581 0.00169965 0.021067 0.0015
207 0.0371199 0.00149937 0.00149918 0.0015
208 0.171662 0.00691616 0.00149968 0.0015
209 0.0449173 0.00149977 0.00149918 0.0015
210 0.00149904 0.00746689 0.00149878 0.0015
211 0.0584246 0.00183835 0.00407506 0.0015
212 0.00152818 0.00151197 0.00952066 0.0015
213 0.0491331 0.00485355 0.0063728 0.0015
214 0.100517 0.00748984 0.00149968 0.0015
215 0.00703328 0.00477694 0.00149812 0.0015
216 0.0444879 0.00149967 0.00607697 0.0015
217 0.0931728 0.0016944 0.00149968 0.0015
218 0.0383299 0.00750031 0.0067975 0.0015
219 0.0464219 0.0023536 0.00394948 0.0015
220 0.0798577 0.00149992 0.00409589 0.0015
221 0.00681679 0.00432352 0.0160862 0.0015
222 0.0100255 0.00750109 0.00996253 0.0015
223 0.00444539 0.00150364 0.0160794 0.0015
224 0.0309099 0.00750117 0.00448152 0.0015
225 0.0206448 0.00750033 0.0141252 0.0015
226 0.0306028 0.00750012 0.00149871 0.0015
227 0.0369853 0.00683752 0.0105944 0.0015
228 0.0331862 0.00399507 0.00761364 0.0015
229 0.0384794 0.00149984 0.00753586 0.0015
230 0.111498 0.00750005 0.00149968 0.0015
231 0.0293986 0.00239921 0.00677791 0.0015
232 0.0262164 0.00151489 0.00938058 0.0015
233 0.021603 0.0074821 0.00149863 0.0015
234 0.0494264 0.00409686 0.00149887 0.0015
235 0.0476949 0.0050619 0.0037486 0.0015
236 0.149148 0.00177207 0.00149968 0.0015
237 0.0236198 0.00750014 0.0137444 0.0015
238 0.103468 0.00156194 0.00149968 0.0015
239 0.00505008 0.00149952 0.00700326 0.0015
240 0.044724 0.00477672 0.00345599 0.0015
241 0.00979296 0.00475221 0.00878445 0.0015
242 0.0328238 0.00149937 0.00596757 0.0015
243 0.0103466 0.00750014 0.0199196 0.0015
244 0.0150938 0.0075007 0.00449367 0.0015
245 0.010344 0.00566254 0.0123093 0.0015
246 0.0121573 0.00750117 0.00510442 0.0015
247 0.0210009 0.00453124 0.0014982 0.0015
248 0.0598974 0.0070634 0.00149968 0.0015
249 0.0962324 0.00149999 0.00149968 0.0015
250 0.010046 0.00450497 0.00149936 0.0015
252 0.0168109 0.00169093 0.00149891 0.0015
253 0.0421967 0.0040086 0.0100903 0.0015
254 0.0168656 0.0064611 0.00867838 0.0015
255 0.133863 0.00709072 0.00149968 0.0015
256 0.0645704 0.00502432 0.00149968 0.0015
257 0.0663949 0.00749912 0.0014994 0.0015
258 0.00149912 0.00149981 0.0021673 0.0015
259 0.017241 0.00149967 0.00798039 0.0015
260 0.00922268 0.00352237 0.0140852 0.0015
261 0.00534638 0.00221753 0.0218488 0.0015
262 0.0738703 0.00277893 0.00377132 0.0015
263 0.0675775 0.00149971 0.00419289 0.0015
264 0.00449694 0.00150033 0.00995142 0.0015
265 0.06318 0.00745379 0.00655868 0.0015
266 0.0145754 0.00439807 0.0165829 0.0015
267 0.0280891 0.00750021 0.0114651 0.0015
268 0.00990984 0.00750103 0.00149849 0.0015
269 0.0507919 0.00750027 0.00661917 0.0015
270 0.021268 0.00175497 0.0092877 0.0015
271 0.0137732 0.0075001 0.0193577 0.0015
272 0.0524232 0.00750026 0.00410197 0.0015
273 0.0265322 0.00680774 0.0139334 0.0015
274 0.0430111 0.00750005 0.00944047 0.0015
275 0.11645 0.00187283 0.00157958 0.0015
276 0.0211728 0.00422053 0.00672565 0.0015
277 0.0813602 0.00150083 0.00149959 0.0015
278 0.0270428 0.00454905 0.00149874 0.0015
279 0.00981053 0.00750022 0.0069717 0.0015
280 0.0938217 0.00746446 0.00149968 0.0015
281 0.0079602 0.00149941 0.00627614 0.0015
282 0.106974 0.00149999 0.00149968 0.0015
283 0.0275058 0.00149942 0.0121037 0.0015
284 0.00676386 0.00406359 0.010288 0.0015
285 0.00861768 0.00750036 0.0172738 0.0015
286 0.0723543 0.00153812 0.00149953 0.0015
287 0.00427144 0.00421579 0.00862624 0.0015
288 0.11331 0.00150315 0.00149968 0.0015
290 0.0155558 0.00411082 0.0137631 0.0015
291 0.0472487 0.00234052 0.0112765 0.0015
292 0.0554227 0.00750032 0.00409825 0.0015
293 0.0197705 0.00337771 0.0176112 0.0015
294 0.00710008 0.0075009 0.0146864 0.0015
295 0.0342148 0.00206377 0.0109403 0.0015
296 0.00442951 0.0068634 0.00448287 0.0015
297 0.0680373 0.0075003 0.0041744 0.0015
298 0.0219776 0.0075004 0.0109392 0.0015
299 0.0290996 0.00487137 0.00845112 0.0015
300 0.0539256 0.00490413 0.00396869 0.0015
301 0.0723944 0.00750026 0.00149957 0.0015
302 0.0258086 0.00150312 0.0145768 0.0015
303 0.0631017 0.00505687 0.00467579 0.0015
304 0.0348446 0.0048313 0.00996904 0.0015
305 0.0599241 0.00150161 0.00149929 0.0015
306 0.0524264 0.00151828 0.00409658 0.0015
307 0.0177931 0.00149984 0.0163616 0.0015
308 0.0235288 0.00651702 0.00847503 0.0015
309 0.0611456 0.00330302 0.00647842 0.0015
310 0.0635351 0.00149973 0.00628675 0.0015
311 0.110259 0.00154481 0.00149968 0.0015
312 0.0363567 0.00171781 0.00542808 0.0015
313 0.247274 0.003095 0.00158851 0.0015
314 0.0568987 0.00724986 0.00669748 0.0015
315 0.02351 0.00491706 0.0114805 0.0015
316 0.0734497 0.00469224 0.0014996 0.0015
317 0.00150072 0.00700145 0.022466 0.0015
318 0.0211108 0.0049415 0.00963648 0.0015
319 0.017552 0.0047442 0.0159105 0.0015
320 0.014141 0.0071957 0.0155609 0.0015
321 0.0246052 0.00741298 0.00149887 0.0015
323 0.0459597 0.00750056 0.00394366 0.0015
324 0.0477606 0.00149975 0.00649412 0.0015
325 0.00149966 0.00442408 0.00149831 0.0015
326 0.00449826 0.00750048 0.00741238 0.0015
327 0.0386728 0.00750007 0.00149894 0.0015
328 0.00149978 0.00151576 0.0125192 0.0015
329 0.00149914 0.00447673 0.0134852 0.0015
330 0.0491776 0.00149974 0.00913836 0.0015
331 0.0814029 0.00749999 0.00149968 0.0015
333 0.0509257 0.00149937 0.0014994 0.0015
334 0.00977193 0.00386288 0.00591973 0.0015
335 0.0319795 0.00149891 0.00149878 0.0015
337 0.0406519 0.0014996 0.00149903 0.0015
338 0.0494254 0.00230551 0.00396878 0.0015
339 0.157838 0.00602635 0.00160625 0.0015
340 0.0274404 0.00428789 0.0153382 0.0015
343 0.0101819 0.00150119 0.0173219 0.0015
344 0.0740297 0.00750021 0.00416619 0.0015
345 0.123207 0.0072585 0.00162263 0.0015
346 0.0809836 0.0042804 0.00407307 0.0015
347 0.0182353 0.0075004 0.00149954 0.0015
348 0.118013 0.00473187 0.00149968 0.0015
349 0.0901791 0.00149993 0.00149964 0.0015
350 0.00735113 0.00735554 0.0199889 0.0015
351 0.0182013 0.00462799 0.00668233 0.0015
352 0.00650553 0.00149923 0.00365426 0.0015
353 0.0228853 0.00149993 0.0139042 0.0015
354 0.0396871 0.00750028 0.00947251 0.0015
355 0.00518466 0.00750001 0.0220588 0.0015
356 0.0343707 0.00406243 0.00149834 0.0015
357 0.00974567 0.00476833 0.016763 0.0015
358 0.0447536 0.00750028 0.00699885 0.0015
359 0.0131037 0.00149976 0.018001 0.0015
360 0.0645907 0.00263516 0.00371893 0.0015
361 0.0764449 0.00452606 0.00149959 0.0015
362 0.00951047 0.0063258 0.00422837 0.0015
363 0.0308306 0.00491787 0.00600251 0.0015
364 0.0842589 0.00227379 0.00149968 0.0015
365 0.0199205 0.00749978 0.00398104 0.0015
366 0.0203939 0.00462946 0.0149574 0.0015
367 0.0984351 0.00414501 0.00149968 0.0015
368 0.0824683 0.00469354 0.00149951 0.0015
369 0.0249745 0.00750105 0.0110685 0.0015
370 0.050926 0.00490298 0.00396847 0.0015
371 0.0779576 0.0042897 0.00407921 0.0015
372 0.0141693 0.00149893 0.00290599 0.0015
373 0.0196603 0.00750035 0.00900156 0.0015
374 0.00444593 0.0014996 0.0190791 0.0015
375 0.075354 0.00149986 0.00149951 0.0015
376 0.0584278 0.00750031 0.00407895 0.0015
377 0.066357 0.00501554 0.00417766 0.0015
378 0.02405 0.00430153 0.001499 0.0015
379 0.137331 0.0055712 0.00150041 0.0015
380 0.0646901 0.00750054 0.00396728 0.0015
381 0.0476913 0.00750008 0.00639317 0.0015
383 0.0570678 0.003563 0.00889476 0.0015
384 0.136314 0.00200706 0.00149968 0.0015
385 0.199683 0.00729796 0.00149968 0.0015
386 0.022462 0.00750009 0.0165117 0.0015
387 0.00150179 0.00149987 0.0215165 0.0015
388 0.10785 0.00447904 0.00149968 0.0015
389 0.0276034 0.00749821 0.00149966 0.0015
390 0.0183227 0.00149947 0.00408188 0.0015
391 0.058678 0.00426807 0.00149912 0.0015
392 0.0356734 0.00750067 0.00149868 0.0015
393 0.0127242 0.00425498 0.00918098 0.0015
394 0.0490648 0.00668862 0.0089335 0.0015
395 0.00728951 0.00750074 0.00873405 0.0015
396 0.0274923 0.00269507 0.0038131 0.0015
397 0.0237643 0.00432321 0.0144097 0.0015
398 0.0152353 0.0075003 0.00149857 0.0015
399 0.0393567 0.00420646 0.00149884 0.0015
400 0.0261685 0.00413266 0.012626 0.0015
401 0.00444666 0.00149941 0.0130796 0.0015
402 0.0570457 0.00149986 0.0067172 0.0015
403 0.0182926 0.00391541 0.00959333 0.0015
404 0.00855049 0.00190518 0.00149902 0.0015
406 0.0189922 0.00149861 0.0112246 0.0015
407 0.00150399 0.00450047 0.00449539 0.0015
408 0.0386203 0.00484357 0.00543552 0.0015
409 0.0494279 0.0075011 0.0039477 0.0015
410 0.0154557 0.00445354 0.0104042 0.0015
411 0.00149962 0.00737877 0.0194902 0.0015
412 0.0229118 0.00149909 0.0067428 0.0015
413 0.0191447 0.00437447 0.00384763 0.0015
414 0.00149941 0.00449928 0.0104866 0.0015
415 0.013024 0.00750027 0.0100273 0.0015
416 0.00149974 0.0074975 0.00749595 0.0015
417 0.00719214 0.00430694 0.00445463 0.0015
418 0.0428147 0.0014998 0.0085664 0.0015
419 0.0368682 0.00398544 0.00315751 0.0015
420 0.0137851 0.00149937 0.0127785 0.0015
421 0.0331389 0.00649528 0.00274617 0.0015
422 0.126198 0.00267484 0.00149959 0.0015
423 0.00486393 0.00483876 0.0204721 0.0015
424 0.0292051 0.00149973 0.00963246 0.0015
425 0.0224814 0.00456067 0.0171107 0.0015
426 0.0265624 0.00149897 0.00640136 0.0015
427 0.00707524 0.00750039 0.00574254 0.0015
428 0.00149979 0.00750005 0.0134936 0.0015
429 0.0768546 0.00149994 0.00409685 0.0015
430 0.0106078 0.00150238 0.00768613 0.0015
431 0.0389787 0.00150643 0.00398781 0.0015
432 0.0431974 0.00421029 0.00603743 0.0015
433 0.0172998 0.00465055 0.00149913 0.0015
434 0.0263162 0.00466457 0.00954991 0.0015
435 0.0476965 0.00745001 0.00149908 0.0015
436 0.00447897 0.00750044 0.0161447 0.0015
437 0.0101949 0.00458984 0.0206312 0.0015
438 0.0186997 0.00750051 0.0118423 0.0015
439 0.0252312 0.00750015 0.00620935 0.0015
440 0.164297 0.00156033 0.00149968 0.0015
