ITEM: TIMESTEP
280000
ITEM: NUMBER OF ATOMS
196
ITEM: BOX BOUNDS ff ff ff
-1.0000000000000000e-02 5.9999999999999998e-01
-3.0000000000000001e-03 1.2000000000000000e-02
0.0000000000000000e+00 1.0639999999999999e-01
ITEM: ATOMS id x y z radius
2 0.0169212 0.0074847 0.00149902 0.0015
3 0.113545 0.00198737 0.00157141 0.0015
4 0.00151124 0.00149991 0.0132786 0.0015
6 0.00960705 0.00750023 0.0105117 0.0015
7 0.0444653 0.00533151 0.00149944 0.0015
8 0.0231988 0.00149949 0.00743599 0.0015
9 0.00418591 0.00149984 0.00283234 0.0015
10 0.00704613 0.00679628 0.0119054 0.0015
11 0.173736 0.00668655 0.00149968 0.0015
12 0.00695248 0.00151514 0.00449709 0.0015
13 0.00630411 0.00512625 0.00704984 0.0015
14 0.0149706 0.00748777 0.00377693 0.0015
15 0.0517819 0.00149993 0.00149964 0.0015
17 0.0209659 0.00152013 0.00943893 0.0015
18 0.0182151 0.00149981 0.00824289 0.0015
19 0.019548 0.00285162 0.00371883 0.0015
20 0.00917431 0.00384752 0.0118523 0.0015
21 0.0184056 0.0075004 0.00866622 0.0015
22 0.00149953 0.00449596 0.0104424 0.0015
24 0.0273721 0.00150198 0.0014991 0.0015
25 0.0254481 0.00582278 0.00395012 0.0015
26 0.00449859 0.00747487 0.00149872 0.0015
27 0.0258595 0.00750068 0.00149894 0.0015
28 0.0114659 0.0048509 0.0101973 0.0015
29 0.0235821 0.00463517 0.00831122 0.0015
31 0.0256496 0.00252441 0.00882966 0.0015
33 0.0173663 0.00149985 0.00527165 0.0015
34 0.0683447 0.00725408 0.00149968 0.0015
35 0.00149939 0.00444105 0.00648575 0.0015
36 0.00444604 0.00280698 0.00551949 0.0015
37 0.0389936 0.00748395 0.00149968 0.0015
38 0.0164709 0.00745398 0.00637416 0.0015
39 0.120694 0.00342934 0.00149968 0.0015
40 0.0106714 0.00750028 0.00442623 0.0015
41 0.0113876 0.00649364 0.012706 0.0015
42 0.0494038 0.00278059 0.00280482 0.0015
43 0.0369166 0.00478751 0.00417945 0.0015
44 0.102605 0.00676833 0.00149968 0.0015
45 0.0133346 0.0014999 0.0104737 0.0015
46 0.0350727 0.00238781 0.00395643 0.0015
48 0.0402037 0.00309081 0.00550295 0.0015
49 0.0299803 0.00749262 0.00149917 0.0015
50 0.00434855 0.00149965 0.00821717 0.0015
51 0.0420978 0.00743752 0.00149954 0.0015
52 0.00699476 0.00452942 0.00990716 0.0015
53 0.0014999 0.00229655 0.00438903 0.0015
54 0.00149978 0.00149981 0.0102792 0.0015
55 0.00149944 0.00149993 0.00728012 0.0015
56 0.00607494 0.00488657 0.00406878 0.0015
57 0.0210458 0.00149964 0.00149943 0.0015
58 0.00153671 0.00154365 0.0162777 0.0015
59 0.0230155 0.00750033 0.00446583 0.0015
60 0.00990821 0.00651437 0.00715432 0.0015
61 0.0313049 0.0074338 0.00857734 0.0015
62 0.0102463 0.00487805 0.00293653 0.0015
63 0.00976627 0.00228963 0.0014991 0.0015
64 0.00153081 0.00449523 0.0134417 0.0015
65 0.0667287 0.00296513 0.00149968 0.0015
66 0.0396772 0.00150883 0.0014996 0.0015
67 0.0380653 0.00408536 0.00149916 0.0015
69 0.0166263 0.00178134 0.0107718 0.0015
70 0.00149936 0.00749929 0.00149906 0.0015
71 0.02289 0.00707703 0.00149926 0.0015
72 0.0631918 0.00490139 0.00150111 0.0015
73 0.00150703 0.00596642 0.0160558 0.0015
74 0.0350655 0.00410845 0.0014993 0.0015
75 0.0151546 0.00701828 0.00903374 0.0015
76 0.0467269 0.00750011 0.00149962 0.0015
77 0.0418519 0.00149968 0.00356632 0.0015
79 0.0859755 0.00379072 0.00149968 0.0015
80 0.00732386 0.0015014 0.00859591 0.0015
81 0.0750152 0.0047346 0.00149968 0.0015
82 0.0298105 0.00494125 0.00413117 0.0015
83 0.00750062 0.00750034 0.0056608 0.0015
84 0.00550876 0.00149967 0.013983 0.0015
86 0.0547818 0.00149985 0.00149968 0.0015
87 0.0174148 0.00422213 0.00921604 0.0015
88 0.0842433 0.00646285 0.00149968 0.0015
89 0.0440262 0.0014998 0.00149961 0.0015
90 0.0285415 0.00426432 0.00149928 0.0015
91 0.00761609 0.00476166 0.00149906 0.0015
92 0.0204478 0.00149932 0.00624009 0.0015
93 0.0257092 0.0014995 0.0039952 0.0015
94 0.00149998 0.0075001 0.0134778 0.0015
96 0.12025 0.0074475 0.00149968 0.0015
97 0.0119211 0.00149995 0.00782796 0.0015
98 0.0305456 0.00149992 0.00149938 0.0015
99 0.0100106 0.00149974 0.0101408 0.0015
100 0.0356721 0.00750023 0.00448071 0.0015
101 0.0187941 0.0047215 0.00149853 0.0015
102 0.0208851 0.00553131 0.00354453 0.0015
103 0.0116708 0.00405905 0.00550444 0.0015
105 0.0043492 0.00149992 0.0112166 0.0015
106 0.0225458 0.00155256 0.00409669 0.0015
107 0.0455265 0.00323097 0.00343648 0.0015
109 0.0320183 0.00480805 0.00615733 0.0015
110 0.0381109 0.0014999 0.00405796 0.0015
111 0.0416947 0.00750026 0.00447134 0.0015
113 0.0534498 0.00527529 0.0033773 0.0015
114 0.0154355 0.00150015 0.00297598 0.0015
115 0.0272957 0.00149961 0.00654103 0.0015
118 0.0558621 0.00750001 0.00149968 0.0015
119 0.00687262 0.00149967 0.00149906 0.0015
120 0.00375319 0.00442932 0.00846453 0.0015
121 0.0100191 0.00750048 0.00149884 0.0015
122 0.0289586 0.00149974 0.00404459 0.0015
123 0.00149967 0.00750078 0.00449802 0.0015
124 0.00732501 0.00149976 0.0115954 0.0015
125 0.0313747 0.00750053 0.00415474 0.0015
126 0.0264719 0.0054293 0.00844503 0.0015
127 0.0128521 0.00450527 0.00149904 0.0015
128 0.0240454 0.00149942 0.00149938 0.0015
130 0.0138041 0.00149953 0.00549308 0.0015
131 0.00149957 0.00726812 0.00748807 0.0015
132 0.0314827 0.00489612 0.00149959 0.0015
133 0.0744023 0.00179788 0.00149968 0.0015
134 0.0131299 0.00750016 0.00614469 0.0015
135 0.0255459 0.00409656 0.00149934 0.0015
136 0.0584139 0.00545433 0.00149968 0.0015
138 0.064796 0.00743723 0.00149968 0.0015
139 0.0320454 0.00291339 0.00367917 0.0015
140 0.00449019 0.00750019 0.00748696 0.0015
143 0.0225459 0.00409726 0.00149947 0.0015
144 0.0180463 0.00150056 0.00149945 0.0015
145 0.0130187 0.00750027 0.00149942 0.0015
146 0.0143133 0.0040992 0.00408651 0.0015
148 0.0333657 0.00749141 0.00639834 0.0015
149 0.00452011 0.00417634 0.00149964 0.0015
150 0.0349451 0.00418151 0.00635744 0.0015
151 0.0214364 0.00433116 0.00623724 0.0015
152 0.0294682 0.00491113 0.00784144 0.0015
153 0.0158925 0.00400905 0.00664006 0.0015
154 0.0329817 0.00749565 0.00149968 0.0015
155 0.023494 0.00750024 0.00742697 0.0015
156 0.0273586 0.00439805 0.00577136 0.0015
157 0.0146613 0.00418958 0.0104058 0.0015
158 0.0637693 0.00178991 0.00149968 0.0015
159 0.0184215 0.00750017 0.00409639 0.0015
160 0.029314 0.00750022 0.00633458 0.0015
161 0.00149971 0.00750021 0.0104783 0.0015
162 0.0365455 0.00149943 0.00149924 0.0015
163 0.0470261 0.00149977 0.00149949 0.0015
164 0.0331959 0.00149981 0.00612119 0.0015
165 0.0527266 0.00750013 0.00149963 0.0015
166 0.00449926 0.00750023 0.0104861 0.0015
167 0.0094098 0.00378376 0.00829156 0.0015
168 0.0511513 0.00483989 0.00149955 0.0015
169 0.0172425 0.00474195 0.00406422 0.0015
170 0.0204021 0.00444092 0.00905063 0.0015
172 0.0128251 0.00149989 0.00149891 0.0015
174 0.0386708 0.00750043 0.00455637 0.0015
175 0.057932 0.0016162 0.00149968 0.0015
176 0.0335707 0.00551128 0.00368868 0.0015
177 0.013317 0.00496964 0.0078402 0.0015
178 0.00149933 0.00449944 0.00149903 0.0015
179 0.070562 0.0025664 0.00149968 0.0015
180 0.0303521 0.00234592 0.00656228 0.0015
181 0.0335455 0.0014999 0.00149961 0.0015
182 0.00931119 0.0014997 0.0063497 0.0015
183 0.0825256 0.00194882 0.00149968 0.0015
184 0.0556121 0.00438247 0.0014996 0.0015
185 0.0359927 0.00742925 0.00149936 0.0015
186 0.00438944 0.00452795 0.0113942 0.0015
187 0.011194 0.00149941 0.00401544 0.0015
188 0.003079 0.00500073 0.00399818 0.0015
189 0.0279198 0.0075003 0.00367884 0.0015
190 0.00149954 0.00149968 0.00149849 0.0015
191 0.0140589 0.00750013 0.0117841 0.0015
192 0.0242701 0.0035991 0.00558147 0.0015
193 0.0606379 0.00299588 0.00153097 0.0015
194 0.047383 0.00457286 0.00149962 0.0015
195 0.0046625 0.00750005 0.00449295 0.0015
196 0.00662027 0.00421986 0.0133811 0.0015
197 0.0778152 0.00196545 0.00149968 0.0015
199 0.100431 0.00452463 0.00149968 0.0015
200 0.0186205 0.00526681 0.00667586 0.0015
201 0.0401498 0.00518404 0.003355 0.0015
202 0.0737929 0.00749625 0.00149968 0.0015
203 0.0419561 0.00367078 0.00149929 0.0015
204 0.00725878 0.00749979 0.00267137 0.0015
205 0.00450996 0.00749647 0.0134857 0.0015
206 0.0152174 0.00149971 0.00813849 0.0015
207 0.0086814 0.00428647 0.00542565 0.0015
208 0.0158312 0.00408679 0.00149945 0.0015
209 0.0606081 0.00750007 0.00149968 0.0015
210 0.0263146 0.00750037 0.00628065 0.0015
211 0.0445559 0.0075002 0.00356981 0.0015
212 0.0497267 0.00748004 0.00149968 0.0015
213 0.0713055 0.00565023 0.00149968 0.0015
214 0.0121941 0.00750043 0.00899417 0.0015
215 0.0205646 0.00750015 0.00619525 0.0015
216 0.0430324 0.00477075 0.00407441 0.0015
217 0.0199207 0.00750095 0.00149887 0.0015
218 0.0189041 0.00593591 0.0111766 0.0015
219 0.0941881 0.00607944 0.0015135 0.0015
220 0.00725508 0.00747887 0.00865016 0.0015
