# dilute gas, matched init to DIRT

10648 atoms
1 atom types

0.0 1.05889988e-01 xlo xhi
0.0 1.05889988e-01 ylo yhi
0.0 1.05889988e-01 zlo zhi

Atoms # sphere

1 1 2.20000000e-03 2500.0 2.40659065e-03 2.40659065e-03 2.40659065e-03
2 1 2.20000000e-03 2500.0 2.40659065e-03 2.40659065e-03 7.21977194e-03
3 1 2.20000000e-03 2500.0 2.40659065e-03 2.40659065e-03 1.20329532e-02
4 1 2.20000000e-03 2500.0 2.40659065e-03 2.40659065e-03 1.68461345e-02
5 1 2.20000000e-03 2500.0 2.40659065e-03 2.40659065e-03 2.16593158e-02
6 1 2.20000000e-03 2500.0 2.40659065e-03 2.40659065e-03 2.64724971e-02
7 1 2.20000000e-03 2500.0 2.40659065e-03 2.40659065e-03 3.12856784e-02
8 1 2.20000000e-03 2500.0 2.40659065e-03 2.40659065e-03 3.60988597e-02
9 1 2.20000000e-03 2500.0 2.40659065e-03 2.40659065e-03 4.09120410e-02
10 1 2.20000000e-03 2500.0 2.40659065e-03 2.40659065e-03 4.57252223e-02
11 1 2.20000000e-03 2500.0 2.40659065e-03 2.40659065e-03 5.05384036e-02
12 1 2.20000000e-03 2500.0 2.40659065e-03 2.40659065e-03 5.53515849e-02
13 1 2.20000000e-03 2500.0 2.40659065e-03 2.40659065e-03 6.01647662e-02
14 1 2.20000000e-03 2500.0 2.40659065e-03 2.40659065e-03 6.49779475e-02
15 1 2.20000000e-03 2500.0 2.40659065e-03 2.40659065e-03 6.97911288e-02
16 1 2.20000000e-03 2500.0 2.40659065e-03 2.40659065e-03 7.46043101e-02
17 1 2.20000000e-03 2500.0 2.40659065e-03 2.40659065e-03 7.94174913e-02
18 1 2.20000000e-03 2500.0 2.40659065e-03 2.40659065e-03 8.42306726e-02
19 1 2.20000000e-03 2500.0 2.40659065e-03 2.40659065e-03 8.90438539e-02
20 1 2.20000000e-03 2500.0 2.40659065e-03 2.40659065e-03 9.38570352e-02
21 1 2.20000000e-03 2500.0 2.40659065e-03 2.40659065e-03 9.86702165e-02
22 1 2.20000000e-03 2500.0 2.40659065e-03 2.40659065e-03 1.03483398e-01
23 1 2.20000000e-03 2500.0 2.40659065e-03 7.21977194e-03 2.40659065e-03
24 1 2.20000000e-03 2500.0 2.40659065e-03 7.21977194e-03 7.21977194e-03
25 1 2.20000000e-03 2500.0 2.40659065e-03 7.21977194e-03 1.20329532e-02
26 1 2.20000000e-03 2500.0 2.40659065e-03 7.21977194e-03 1.68461345e-02
27 1 2.20000000e-03 2500.0 2.40659065e-03 7.21977194e-03 2.16593158e-02
28 1 2.20000000e-03 2500.0 2.40659065e-03 7.21977194e-03 2.64724971e-02
29 1 2.20000000e-03 2500.0 2.40659065e-03 7.21977194e-03 3.12856784e-02
30 1 2.20000000e-03 2500.0 2.40659065e-03 7.21977194e-03 3.60988597e-02
31 1 2.20000000e-03 2500.0 2.40659065e-03 7.21977194e-03 4.09120410e-02
32 1 2.20000000e-03 2500.0 2.40659065e-03 7.21977194e-03 4.57252223e-02
33 1 2.20000000e-03 2500.0 2.40659065e-03 7.21977194e-03 5.05384036e-02
34 1 2.20000000e-03 2500.0 2.40659065e-03 7.21977194e-03 5.53515849e-02
35 1 2.20000000e-03 2500.0 2.40659065e-03 7.21977194e-03 6.01647662e-02
36 1 2.20000000e-03 2500.0 2.40659065e-03 7.21977194e-03 6.49779475e-02
37 1 2.20000000e-03 2500.0 2.40659065e-03 7.21977194e-03 6.97911288e-02
38 1 2.20000000e-03 2500.0 2.40659065e-03 7.21977194e-03 7.46043101e-02
39 1 2.20000000e-03 2500.0 2.40659065e-03 7.21977194e-03 7.94174913e-02
40 1 2.20000000e-03 2500.0 2.40659065e-03 7.21977194e-03 8.42306726e-02
41 1 2.20000000e-03 2500.0 2.40659065e-03 7.21977194e-03 8.90438539e-02
42 1 2.20000000e-03 2500.0 2.40659065e-03 7.21977194e-03 9.38570352e-02
43 1 2.20000000e-03 2500.0 2.40659065e-03 7.21977194e-03 9.86702165e-02
44 1 2.20000000e-03 2500.0 2.40659065e-03 7.21977194e-03 1.03483398e-01
45 1 2.20000000e-03 2500.0 2.40659065e-03 1.20329532e-02 2.40659065e-03
46 1 2.20000000e-03 2500.0 2.40659065e-03 1.20329532e-02 7.21977194e-03
47 1 2.20000000e-03 2500.0 2.40659065e-03 1.20329532e-02 1.20329532e-02
48 1 2.20000000e-03 2500.0 2.40659065e-03 1.20329532e-02 1.68461345e-02
49 1 2.20000000e-03 2500.0 2.40659065e-03 1.20329532e-02 2.16593158e-02
50 1 2.20000000e-03 2500.0 2.40659065e-03 1.20329532e-02 2.64724971e-02
51 1 2.20000000e-03 2500.0 2.40659065e-03 1.20329532e-02 3.12856784e-02
52 1 2.20000000e-03 2500.0 2.40659065e-03 1.20329532e-02 3.60988597e-02
53 1 2.20000000e-03 2500.0 2.40659065e-03 1.20329532e-02 4.09120410e-02
54 1 2.20000000e-03 2500.0 2.40659065e-03 1.20329532e-02 4.57252223e-02
55 1 2.20000000e-03 2500.0 2.40659065e-03 1.20329532e-02 5.05384036e-02
56 1 2.20000000e-03 2500.0 2.40659065e-03 1.20329532e-02 5.53515849e-02
57 1 2.20000000e-03 2500.0 2.40659065e-03 1.20329532e-02 6.01647662e-02
58 1 2.20000000e-03 2500.0 2.40659065e-03 1.20329532e-02 6.49779475e-02
59 1 2.20000000e-03 2500.0 2.40659065e-03 1.20329532e-02 6.97911288e-02
60 1 2.20000000e-03 2500.0 2.40659065e-03 1.20329532e-02 7.46043101e-02
61 1 2.20000000e-03 2500.0 2.40659065e-03 1.20329532e-02 7.94174913e-02
62 1 2.20000000e-03 2500.0 2.40659065e-03 1.20329532e-02 8.42306726e-02
63 1 2.20000000e-03 2500.0 2.40659065e-03 1.20329532e-02 8.90438539e-02
64 1 2.20000000e-03 2500.0 2.40659065e-03 1.20329532e-02 9.38570352e-02
65 1 2.20000000e-03 2500.0 2.40659065e-03 1.20329532e-02 9.86702165e-02
66 1 2.20000000e-03 2500.0 2.40659065e-03 1.20329532e-02 1.03483398e-01
67 1 2.20000000e-03 2500.0 2.40659065e-03 1.68461345e-02 2.40659065e-03
68 1 2.20000000e-03 2500.0 2.40659065e-03 1.68461345e-02 7.21977194e-03
69 1 2.20000000e-03 2500.0 2.40659065e-03 1.68461345e-02 1.20329532e-02
70 1 2.20000000e-03 2500.0 2.40659065e-03 1.68461345e-02 1.68461345e-02
71 1 2.20000000e-03 2500.0 2.40659065e-03 1.68461345e-02 2.16593158e-02
72 1 2.20000000e-03 2500.0 2.40659065e-03 1.68461345e-02 2.64724971e-02
73 1 2.20000000e-03 2500.0 2.40659065e-03 1.68461345e-02 3.12856784e-02
74 1 2.20000000e-03 2500.0 2.40659065e-03 1.68461345e-02 3.60988597e-02
75 1 2.20000000e-03 2500.0 2.40659065e-03 1.68461345e-02 4.09120410e-02
76 1 2.20000000e-03 2500.0 2.40659065e-03 1.68461345e-02 4.57252223e-02
77 1 2.20000000e-03 2500.0 2.40659065e-03 1.68461345e-02 5.05384036e-02
78 1 2.20000000e-03 2500.0 2.40659065e-03 1.68461345e-02 5.53515849e-02
79 1 2.20000000e-03 2500.0 2.40659065e-03 1.68461345e-02 6.01647662e-02
80 1 2.20000000e-03 2500.0 2.40659065e-03 1.68461345e-02 6.49779475e-02
81 1 2.20000000e-03 2500.0 2.40659065e-03 1.68461345e-02 6.97911288e-02
82 1 2.20000000e-03 2500.0 2.40659065e-03 1.68461345e-02 7.46043101e-02
83 1 2.20000000e-03 2500.0 2.40659065e-03 1.68461345e-02 7.94174913e-02
84 1 2.20000000e-03 2500.0 2.40659065e-03 1.68461345e-02 8.42306726e-02
85 1 2.20000000e-03 2500.0 2.40659065e-03 1.68461345e-02 8.90438539e-02
86 1 2.20000000e-03 2500.0 2.40659065e-03 1.68461345e-02 9.38570352e-02
87 1 2.20000000e-03 2500.0 2.40659065e-03 1.68461345e-02 9.86702165e-02
88 1 2.20000000e-03 2500.0 2.40659065e-03 1.68461345e-02 1.03483398e-01
89 1 2.20000000e-03 2500.0 2.40659065e-03 2.16593158e-02 2.40659065e-03
90 1 2.20000000e-03 2500.0 2.40659065e-03 2.16593158e-02 7.21977194e-03
91 1 2.20000000e-03 2500.0 2.40659065e-03 2.16593158e-02 1.20329532e-02
92 1 2.20000000e-03 2500.0 2.40659065e-03 2.16593158e-02 1.68461345e-02
93 1 2.20000000e-03 2500.0 2.40659065e-03 2.16593158e-02 2.16593158e-02
94 1 2.20000000e-03 2500.0 2.40659065e-03 2.16593158e-02 2.64724971e-02
95 1 2.20000000e-03 2500.0 2.40659065e-03 2.16593158e-02 3.12856784e-02
96 1 2.20000000e-03 2500.0 2.40659065e-03 2.16593158e-02 3.60988597e-02
97 1 2.20000000e-03 2500.0 2.40659065e-03 2.16593158e-02 4.09120410e-02
98 1 2.20000000e-03 2500.0 2.40659065e-03 2.16593158e-02 4.57252223e-02
99 1 2.20000000e-03 2500.0 2.40659065e-03 2.16593158e-02 5.05384036e-02
100 1 2.20000000e-03 2500.0 2.40659065e-03 2.16593158e-02 5.53515849e-02
101 1 2.20000000e-03 2500.0 2.40659065e-03 2.16593158e-02 6.01647662e-02
102 1 2.20000000e-03 2500.0 2.40659065e-03 2.16593158e-02 6.49779475e-02
103 1 2.20000000e-03 2500.0 2.40659065e-03 2.16593158e-02 6.97911288e-02
104 1 2.20000000e-03 2500.0 2.40659065e-03 2.16593158e-02 7.46043101e-02
105 1 2.20000000e-03 2500.0 2.40659065e-03 2.16593158e-02 7.94174913e-02
106 1 2.20000000e-03 2500.0 2.40659065e-03 2.16593158e-02 8.42306726e-02
107 1 2.20000000e-03 2500.0 2.40659065e-03 2.16593158e-02 8.90438539e-02
108 1 2.20000000e-03 2500.0 2.40659065e-03 2.16593158e-02 9.38570352e-02
109 1 2.20000000e-03 2500.0 2.40659065e-03 2.16593158e-02 9.86702165e-02
110 1 2.20000000e-03 2500.0 2.40659065e-03 2.16593158e-02 1.03483398e-01
111 1 2.20000000e-03 2500.0 2.40659065e-03 2.64724971e-02 2.40659065e-03
112 1 2.20000000e-03 2500.0 2.40659065e-03 2.64724971e-02 7.21977194e-03
113 1 2.20000000e-03 2500.0 2.40659065e-03 2.64724971e-02 1.20329532e-02
114 1 2.20000000e-03 2500.0 2.40659065e-03 2.64724971e-02 1.68461345e-02
115 1 2.20000000e-03 2500.0 2.40659065e-03 2.64724971e-02 2.16593158e-02
116 1 2.20000000e-03 2500.0 2.40659065e-03 2.64724971e-02 2.64724971e-02
117 1 2.20000000e-03 2500.0 2.40659065e-03 2.64724971e-02 3.12856784e-02
118 1 2.20000000e-03 2500.0 2.40659065e-03 2.64724971e-02 3.60988597e-02
119 1 2.20000000e-03 2500.0 2.40659065e-03 2.64724971e-02 4.09120410e-02
120 1 2.20000000e-03 2500.0 2.40659065e-03 2.64724971e-02 4.57252223e-02
121 1 2.20000000e-03 2500.0 2.40659065e-03 2.64724971e-02 5.05384036e-02
122 1 2.20000000e-03 2500.0 2.40659065e-03 2.64724971e-02 5.53515849e-02
123 1 2.20000000e-03 2500.0 2.40659065e-03 2.64724971e-02 6.01647662e-02
124 1 2.20000000e-03 2500.0 2.40659065e-03 2.64724971e-02 6.49779475e-02
125 1 2.20000000e-03 2500.0 2.40659065e-03 2.64724971e-02 6.97911288e-02
126 1 2.20000000e-03 2500.0 2.40659065e-03 2.64724971e-02 7.46043101e-02
127 1 2.20000000e-03 2500.0 2.40659065e-03 2.64724971e-02 7.94174913e-02
128 1 2.20000000e-03 2500.0 2.40659065e-03 2.64724971e-02 8.42306726e-02
129 1 2.20000000e-03 2500.0 2.40659065e-03 2.64724971e-02 8.90438539e-02
130 1 2.20000000e-03 2500.0 2.40659065e-03 2.64724971e-02 9.38570352e-02
131 1 2.20000000e-03 2500.0 2.40659065e-03 2.64724971e-02 9.86702165e-02
132 1 2.20000000e-03 2500.0 2.40659065e-03 2.64724971e-02 1.03483398e-01
133 1 2.20000000e-03 2500.0 2.40659065e-03 3.12856784e-02 2.40659065e-03
134 1 2.20000000e-03 2500.0 2.40659065e-03 3.12856784e-02 7.21977194e-03
135 1 2.20000000e-03 2500.0 2.40659065e-03 3.12856784e-02 1.20329532e-02
136 1 2.20000000e-03 2500.0 2.40659065e-03 3.12856784e-02 1.68461345e-02
137 1 2.20000000e-03 2500.0 2.40659065e-03 3.12856784e-02 2.16593158e-02
138 1 2.20000000e-03 2500.0 2.40659065e-03 3.12856784e-02 2.64724971e-02
139 1 2.20000000e-03 2500.0 2.40659065e-03 3.12856784e-02 3.12856784e-02
140 1 2.20000000e-03 2500.0 2.40659065e-03 3.12856784e-02 3.60988597e-02
141 1 2.20000000e-03 2500.0 2.40659065e-03 3.12856784e-02 4.09120410e-02
142 1 2.20000000e-03 2500.0 2.40659065e-03 3.12856784e-02 4.57252223e-02
143 1 2.20000000e-03 2500.0 2.40659065e-03 3.12856784e-02 5.05384036e-02
144 1 2.20000000e-03 2500.0 2.40659065e-03 3.12856784e-02 5.53515849e-02
145 1 2.20000000e-03 2500.0 2.40659065e-03 3.12856784e-02 6.01647662e-02
146 1 2.20000000e-03 2500.0 2.40659065e-03 3.12856784e-02 6.49779475e-02
147 1 2.20000000e-03 2500.0 2.40659065e-03 3.12856784e-02 6.97911288e-02
148 1 2.20000000e-03 2500.0 2.40659065e-03 3.12856784e-02 7.46043101e-02
149 1 2.20000000e-03 2500.0 2.40659065e-03 3.12856784e-02 7.94174913e-02
150 1 2.20000000e-03 2500.0 2.40659065e-03 3.12856784e-02 8.42306726e-02
151 1 2.20000000e-03 2500.0 2.40659065e-03 3.12856784e-02 8.90438539e-02
152 1 2.20000000e-03 2500.0 2.40659065e-03 3.12856784e-02 9.38570352e-02
153 1 2.20000000e-03 2500.0 2.40659065e-03 3.12856784e-02 9.86702165e-02
154 1 2.20000000e-03 2500.0 2.40659065e-03 3.12856784e-02 1.03483398e-01
155 1 2.20000000e-03 2500.0 2.40659065e-03 3.60988597e-02 2.40659065e-03
156 1 2.20000000e-03 2500.0 2.40659065e-03 3.60988597e-02 7.21977194e-03
157 1 2.20000000e-03 2500.0 2.40659065e-03 3.60988597e-02 1.20329532e-02
158 1 2.20000000e-03 2500.0 2.40659065e-03 3.60988597e-02 1.68461345e-02
159 1 2.20000000e-03 2500.0 2.40659065e-03 3.60988597e-02 2.16593158e-02
160 1 2.20000000e-03 2500.0 2.40659065e-03 3.60988597e-02 2.64724971e-02
161 1 2.20000000e-03 2500.0 2.40659065e-03 3.60988597e-02 3.12856784e-02
162 1 2.20000000e-03 2500.0 2.40659065e-03 3.60988597e-02 3.60988597e-02
163 1 2.20000000e-03 2500.0 2.40659065e-03 3.60988597e-02 4.09120410e-02
164 1 2.20000000e-03 2500.0 2.40659065e-03 3.60988597e-02 4.57252223e-02
165 1 2.20000000e-03 2500.0 2.40659065e-03 3.60988597e-02 5.05384036e-02
166 1 2.20000000e-03 2500.0 2.40659065e-03 3.60988597e-02 5.53515849e-02
167 1 2.20000000e-03 2500.0 2.40659065e-03 3.60988597e-02 6.01647662e-02
168 1 2.20000000e-03 2500.0 2.40659065e-03 3.60988597e-02 6.49779475e-02
169 1 2.20000000e-03 2500.0 2.40659065e-03 3.60988597e-02 6.97911288e-02
170 1 2.20000000e-03 2500.0 2.40659065e-03 3.60988597e-02 7.46043101e-02
171 1 2.20000000e-03 2500.0 2.40659065e-03 3.60988597e-02 7.94174913e-02
172 1 2.20000000e-03 2500.0 2.40659065e-03 3.60988597e-02 8.42306726e-02
173 1 2.20000000e-03 2500.0 2.40659065e-03 3.60988597e-02 8.90438539e-02
174 1 2.20000000e-03 2500.0 2.40659065e-03 3.60988597e-02 9.38570352e-02
175 1 2.20000000e-03 2500.0 2.40659065e-03 3.60988597e-02 9.86702165e-02
176 1 2.20000000e-03 2500.0 2.40659065e-03 3.60988597e-02 1.03483398e-01
177 1 2.20000000e-03 2500.0 2.40659065e-03 4.09120410e-02 2.40659065e-03
178 1 2.20000000e-03 2500.0 2.40659065e-03 4.09120410e-02 7.21977194e-03
179 1 2.20000000e-03 2500.0 2.40659065e-03 4.09120410e-02 1.20329532e-02
180 1 2.20000000e-03 2500.0 2.40659065e-03 4.09120410e-02 1.68461345e-02
181 1 2.20000000e-03 2500.0 2.40659065e-03 4.09120410e-02 2.16593158e-02
182 1 2.20000000e-03 2500.0 2.40659065e-03 4.09120410e-02 2.64724971e-02
183 1 2.20000000e-03 2500.0 2.40659065e-03 4.09120410e-02 3.12856784e-02
184 1 2.20000000e-03 2500.0 2.40659065e-03 4.09120410e-02 3.60988597e-02
185 1 2.20000000e-03 2500.0 2.40659065e-03 4.09120410e-02 4.09120410e-02
186 1 2.20000000e-03 2500.0 2.40659065e-03 4.09120410e-02 4.57252223e-02
187 1 2.20000000e-03 2500.0 2.40659065e-03 4.09120410e-02 5.05384036e-02
188 1 2.20000000e-03 2500.0 2.40659065e-03 4.09120410e-02 5.53515849e-02
189 1 2.20000000e-03 2500.0 2.40659065e-03 4.09120410e-02 6.01647662e-02
190 1 2.20000000e-03 2500.0 2.40659065e-03 4.09120410e-02 6.49779475e-02
191 1 2.20000000e-03 2500.0 2.40659065e-03 4.09120410e-02 6.97911288e-02
192 1 2.20000000e-03 2500.0 2.40659065e-03 4.09120410e-02 7.46043101e-02
193 1 2.20000000e-03 2500.0 2.40659065e-03 4.09120410e-02 7.94174913e-02
194 1 2.20000000e-03 2500.0 2.40659065e-03 4.09120410e-02 8.42306726e-02
195 1 2.20000000e-03 2500.0 2.40659065e-03 4.09120410e-02 8.90438539e-02
196 1 2.20000000e-03 2500.0 2.40659065e-03 4.09120410e-02 9.38570352e-02
197 1 2.20000000e-03 2500.0 2.40659065e-03 4.09120410e-02 9.86702165e-02
198 1 2.20000000e-03 2500.0 2.40659065e-03 4.09120410e-02 1.03483398e-01
199 1 2.20000000e-03 2500.0 2.40659065e-03 4.57252223e-02 2.40659065e-03
200 1 2.20000000e-03 2500.0 2.40659065e-03 4.57252223e-02 7.21977194e-03
201 1 2.20000000e-03 2500.0 2.40659065e-03 4.57252223e-02 1.20329532e-02
202 1 2.20000000e-03 2500.0 2.40659065e-03 4.57252223e-02 1.68461345e-02
203 1 2.20000000e-03 2500.0 2.40659065e-03 4.57252223e-02 2.16593158e-02
204 1 2.20000000e-03 2500.0 2.40659065e-03 4.57252223e-02 2.64724971e-02
205 1 2.20000000e-03 2500.0 2.40659065e-03 4.57252223e-02 3.12856784e-02
206 1 2.20000000e-03 2500.0 2.40659065e-03 4.57252223e-02 3.60988597e-02
207 1 2.20000000e-03 2500.0 2.40659065e-03 4.57252223e-02 4.09120410e-02
208 1 2.20000000e-03 2500.0 2.40659065e-03 4.57252223e-02 4.57252223e-02
209 1 2.20000000e-03 2500.0 2.40659065e-03 4.57252223e-02 5.05384036e-02
210 1 2.20000000e-03 2500.0 2.40659065e-03 4.57252223e-02 5.53515849e-02
211 1 2.20000000e-03 2500.0 2.40659065e-03 4.57252223e-02 6.01647662e-02
212 1 2.20000000e-03 2500.0 2.40659065e-03 4.57252223e-02 6.49779475e-02
213 1 2.20000000e-03 2500.0 2.40659065e-03 4.57252223e-02 6.97911288e-02
214 1 2.20000000e-03 2500.0 2.40659065e-03 4.57252223e-02 7.46043101e-02
215 1 2.20000000e-03 2500.0 2.40659065e-03 4.57252223e-02 7.94174913e-02
216 1 2.20000000e-03 2500.0 2.40659065e-03 4.57252223e-02 8.42306726e-02
217 1 2.20000000e-03 2500.0 2.40659065e-03 4.57252223e-02 8.90438539e-02
218 1 2.20000000e-03 2500.0 2.40659065e-03 4.57252223e-02 9.38570352e-02
219 1 2.20000000e-03 2500.0 2.40659065e-03 4.57252223e-02 9.86702165e-02
220 1 2.20000000e-03 2500.0 2.40659065e-03 4.57252223e-02 1.03483398e-01
221 1 2.20000000e-03 2500.0 2.40659065e-03 5.05384036e-02 2.40659065e-03
222 1 2.20000000e-03 2500.0 2.40659065e-03 5.05384036e-02 7.21977194e-03
223 1 2.20000000e-03 2500.0 2.40659065e-03 5.05384036e-02 1.20329532e-02
224 1 2.20000000e-03 2500.0 2.40659065e-03 5.05384036e-02 1.68461345e-02
225 1 2.20000000e-03 2500.0 2.40659065e-03 5.05384036e-02 2.16593158e-02
226 1 2.20000000e-03 2500.0 2.40659065e-03 5.05384036e-02 2.64724971e-02
227 1 2.20000000e-03 2500.0 2.40659065e-03 5.05384036e-02 3.12856784e-02
228 1 2.20000000e-03 2500.0 2.40659065e-03 5.05384036e-02 3.60988597e-02
229 1 2.20000000e-03 2500.0 2.40659065e-03 5.05384036e-02 4.09120410e-02
230 1 2.20000000e-03 2500.0 2.40659065e-03 5.05384036e-02 4.57252223e-02
231 1 2.20000000e-03 2500.0 2.40659065e-03 5.05384036e-02 5.05384036e-02
232 1 2.20000000e-03 2500.0 2.40659065e-03 5.05384036e-02 5.53515849e-02
233 1 2.20000000e-03 2500.0 2.40659065e-03 5.05384036e-02 6.01647662e-02
234 1 2.20000000e-03 2500.0 2.40659065e-03 5.05384036e-02 6.49779475e-02
235 1 2.20000000e-03 2500.0 2.40659065e-03 5.05384036e-02 6.97911288e-02
236 1 2.20000000e-03 2500.0 2.40659065e-03 5.05384036e-02 7.46043101e-02
237 1 2.20000000e-03 2500.0 2.40659065e-03 5.05384036e-02 7.94174913e-02
238 1 2.20000000e-03 2500.0 2.40659065e-03 5.05384036e-02 8.42306726e-02
239 1 2.20000000e-03 2500.0 2.40659065e-03 5.05384036e-02 8.90438539e-02
240 1 2.20000000e-03 2500.0 2.40659065e-03 5.05384036e-02 9.38570352e-02
241 1 2.20000000e-03 2500.0 2.40659065e-03 5.05384036e-02 9.86702165e-02
242 1 2.20000000e-03 2500.0 2.40659065e-03 5.05384036e-02 1.03483398e-01
243 1 2.20000000e-03 2500.0 2.40659065e-03 5.53515849e-02 2.40659065e-03
244 1 2.20000000e-03 2500.0 2.40659065e-03 5.53515849e-02 7.21977194e-03
245 1 2.20000000e-03 2500.0 2.40659065e-03 5.53515849e-02 1.20329532e-02
246 1 2.20000000e-03 2500.0 2.40659065e-03 5.53515849e-02 1.68461345e-02
247 1 2.20000000e-03 2500.0 2.40659065e-03 5.53515849e-02 2.16593158e-02
248 1 2.20000000e-03 2500.0 2.40659065e-03 5.53515849e-02 2.64724971e-02
249 1 2.20000000e-03 2500.0 2.40659065e-03 5.53515849e-02 3.12856784e-02
250 1 2.20000000e-03 2500.0 2.40659065e-03 5.53515849e-02 3.60988597e-02
251 1 2.20000000e-03 2500.0 2.40659065e-03 5.53515849e-02 4.09120410e-02
252 1 2.20000000e-03 2500.0 2.40659065e-03 5.53515849e-02 4.57252223e-02
253 1 2.20000000e-03 2500.0 2.40659065e-03 5.53515849e-02 5.05384036e-02
254 1 2.20000000e-03 2500.0 2.40659065e-03 5.53515849e-02 5.53515849e-02
255 1 2.20000000e-03 2500.0 2.40659065e-03 5.53515849e-02 6.01647662e-02
256 1 2.20000000e-03 2500.0 2.40659065e-03 5.53515849e-02 6.49779475e-02
257 1 2.20000000e-03 2500.0 2.40659065e-03 5.53515849e-02 6.97911288e-02
258 1 2.20000000e-03 2500.0 2.40659065e-03 5.53515849e-02 7.46043101e-02
259 1 2.20000000e-03 2500.0 2.40659065e-03 5.53515849e-02 7.94174913e-02
260 1 2.20000000e-03 2500.0 2.40659065e-03 5.53515849e-02 8.42306726e-02
261 1 2.20000000e-03 2500.0 2.40659065e-03 5.53515849e-02 8.90438539e-02
262 1 2.20000000e-03 2500.0 2.40659065e-03 5.53515849e-02 9.38570352e-02
263 1 2.20000000e-03 2500.0 2.40659065e-03 5.53515849e-02 9.86702165e-02
264 1 2.20000000e-03 2500.0 2.40659065e-03 5.53515849e-02 1.03483398e-01
265 1 2.20000000e-03 2500.0 2.40659065e-03 6.01647662e-02 2.40659065e-03
266 1 2.20000000e-03 2500.0 2.40659065e-03 6.01647662e-02 7.21977194e-03
267 1 2.20000000e-03 2500.0 2.40659065e-03 6.01647662e-02 1.20329532e-02
268 1 2.20000000e-03 2500.0 2.40659065e-03 6.01647662e-02 1.68461345e-02
269 1 2.20000000e-03 2500.0 2.40659065e-03 6.01647662e-02 2.16593158e-02
270 1 2.20000000e-03 2500.0 2.40659065e-03 6.01647662e-02 2.64724971e-02
271 1 2.20000000e-03 2500.0 2.40659065e-03 6.01647662e-02 3.12856784e-02
272 1 2.20000000e-03 2500.0 2.40659065e-03 6.01647662e-02 3.60988597e-02
273 1 2.20000000e-03 2500.0 2.40659065e-03 6.01647662e-02 4.09120410e-02
274 1 2.20000000e-03 2500.0 2.40659065e-03 6.01647662e-02 4.57252223e-02
275 1 2.20000000e-03 2500.0 2.40659065e-03 6.01647662e-02 5.05384036e-02
276 1 2.20000000e-03 2500.0 2.40659065e-03 6.01647662e-02 5.53515849e-02
277 1 2.20000000e-03 2500.0 2.40659065e-03 6.01647662e-02 6.01647662e-02
278 1 2.20000000e-03 2500.0 2.40659065e-03 6.01647662e-02 6.49779475e-02
279 1 2.20000000e-03 2500.0 2.40659065e-03 6.01647662e-02 6.97911288e-02
280 1 2.20000000e-03 2500.0 2.40659065e-03 6.01647662e-02 7.46043101e-02
281 1 2.20000000e-03 2500.0 2.40659065e-03 6.01647662e-02 7.94174913e-02
282 1 2.20000000e-03 2500.0 2.40659065e-03 6.01647662e-02 8.42306726e-02
283 1 2.20000000e-03 2500.0 2.40659065e-03 6.01647662e-02 8.90438539e-02
284 1 2.20000000e-03 2500.0 2.40659065e-03 6.01647662e-02 9.38570352e-02
285 1 2.20000000e-03 2500.0 2.40659065e-03 6.01647662e-02 9.86702165e-02
286 1 2.20000000e-03 2500.0 2.40659065e-03 6.01647662e-02 1.03483398e-01
287 1 2.20000000e-03 2500.0 2.40659065e-03 6.49779475e-02 2.40659065e-03
288 1 2.20000000e-03 2500.0 2.40659065e-03 6.49779475e-02 7.21977194e-03
289 1 2.20000000e-03 2500.0 2.40659065e-03 6.49779475e-02 1.20329532e-02
290 1 2.20000000e-03 2500.0 2.40659065e-03 6.49779475e-02 1.68461345e-02
291 1 2.20000000e-03 2500.0 2.40659065e-03 6.49779475e-02 2.16593158e-02
292 1 2.20000000e-03 2500.0 2.40659065e-03 6.49779475e-02 2.64724971e-02
293 1 2.20000000e-03 2500.0 2.40659065e-03 6.49779475e-02 3.12856784e-02
294 1 2.20000000e-03 2500.0 2.40659065e-03 6.49779475e-02 3.60988597e-02
295 1 2.20000000e-03 2500.0 2.40659065e-03 6.49779475e-02 4.09120410e-02
296 1 2.20000000e-03 2500.0 2.40659065e-03 6.49779475e-02 4.57252223e-02
297 1 2.20000000e-03 2500.0 2.40659065e-03 6.49779475e-02 5.05384036e-02
298 1 2.20000000e-03 2500.0 2.40659065e-03 6.49779475e-02 5.53515849e-02
299 1 2.20000000e-03 2500.0 2.40659065e-03 6.49779475e-02 6.01647662e-02
300 1 2.20000000e-03 2500.0 2.40659065e-03 6.49779475e-02 6.49779475e-02
301 1 2.20000000e-03 2500.0 2.40659065e-03 6.49779475e-02 6.97911288e-02
302 1 2.20000000e-03 2500.0 2.40659065e-03 6.49779475e-02 7.46043101e-02
303 1 2.20000000e-03 2500.0 2.40659065e-03 6.49779475e-02 7.94174913e-02
304 1 2.20000000e-03 2500.0 2.40659065e-03 6.49779475e-02 8.42306726e-02
305 1 2.20000000e-03 2500.0 2.40659065e-03 6.49779475e-02 8.90438539e-02
306 1 2.20000000e-03 2500.0 2.40659065e-03 6.49779475e-02 9.38570352e-02
307 1 2.20000000e-03 2500.0 2.40659065e-03 6.49779475e-02 9.86702165e-02
308 1 2.20000000e-03 2500.0 2.40659065e-03 6.49779475e-02 1.03483398e-01
309 1 2.20000000e-03 2500.0 2.40659065e-03 6.97911288e-02 2.40659065e-03
310 1 2.20000000e-03 2500.0 2.40659065e-03 6.97911288e-02 7.21977194e-03
311 1 2.20000000e-03 2500.0 2.40659065e-03 6.97911288e-02 1.20329532e-02
312 1 2.20000000e-03 2500.0 2.40659065e-03 6.97911288e-02 1.68461345e-02
313 1 2.20000000e-03 2500.0 2.40659065e-03 6.97911288e-02 2.16593158e-02
314 1 2.20000000e-03 2500.0 2.40659065e-03 6.97911288e-02 2.64724971e-02
315 1 2.20000000e-03 2500.0 2.40659065e-03 6.97911288e-02 3.12856784e-02
316 1 2.20000000e-03 2500.0 2.40659065e-03 6.97911288e-02 3.60988597e-02
317 1 2.20000000e-03 2500.0 2.40659065e-03 6.97911288e-02 4.09120410e-02
318 1 2.20000000e-03 2500.0 2.40659065e-03 6.97911288e-02 4.57252223e-02
319 1 2.20000000e-03 2500.0 2.40659065e-03 6.97911288e-02 5.05384036e-02
320 1 2.20000000e-03 2500.0 2.40659065e-03 6.97911288e-02 5.53515849e-02
321 1 2.20000000e-03 2500.0 2.40659065e-03 6.97911288e-02 6.01647662e-02
322 1 2.20000000e-03 2500.0 2.40659065e-03 6.97911288e-02 6.49779475e-02
323 1 2.20000000e-03 2500.0 2.40659065e-03 6.97911288e-02 6.97911288e-02
324 1 2.20000000e-03 2500.0 2.40659065e-03 6.97911288e-02 7.46043101e-02
325 1 2.20000000e-03 2500.0 2.40659065e-03 6.97911288e-02 7.94174913e-02
326 1 2.20000000e-03 2500.0 2.40659065e-03 6.97911288e-02 8.42306726e-02
327 1 2.20000000e-03 2500.0 2.40659065e-03 6.97911288e-02 8.90438539e-02
328 1 2.20000000e-03 2500.0 2.40659065e-03 6.97911288e-02 9.38570352e-02
329 1 2.20000000e-03 2500.0 2.40659065e-03 6.97911288e-02 9.86702165e-02
330 1 2.20000000e-03 2500.0 2.40659065e-03 6.97911288e-02 1.03483398e-01
331 1 2.20000000e-03 2500.0 2.40659065e-03 7.46043101e-02 2.40659065e-03
332 1 2.20000000e-03 2500.0 2.40659065e-03 7.46043101e-02 7.21977194e-03
333 1 2.20000000e-03 2500.0 2.40659065e-03 7.46043101e-02 1.20329532e-02
334 1 2.20000000e-03 2500.0 2.40659065e-03 7.46043101e-02 1.68461345e-02
335 1 2.20000000e-03 2500.0 2.40659065e-03 7.46043101e-02 2.16593158e-02
336 1 2.20000000e-03 2500.0 2.40659065e-03 7.46043101e-02 2.64724971e-02
337 1 2.20000000e-03 2500.0 2.40659065e-03 7.46043101e-02 3.12856784e-02
338 1 2.20000000e-03 2500.0 2.40659065e-03 7.46043101e-02 3.60988597e-02
339 1 2.20000000e-03 2500.0 2.40659065e-03 7.46043101e-02 4.09120410e-02
340 1 2.20000000e-03 2500.0 2.40659065e-03 7.46043101e-02 4.57252223e-02
341 1 2.20000000e-03 2500.0 2.40659065e-03 7.46043101e-02 5.05384036e-02
342 1 2.20000000e-03 2500.0 2.40659065e-03 7.46043101e-02 5.53515849e-02
343 1 2.20000000e-03 2500.0 2.40659065e-03 7.46043101e-02 6.01647662e-02
344 1 2.20000000e-03 2500.0 2.40659065e-03 7.46043101e-02 6.49779475e-02
345 1 2.20000000e-03 2500.0 2.40659065e-03 7.46043101e-02 6.97911288e-02
346 1 2.20000000e-03 2500.0 2.40659065e-03 7.46043101e-02 7.46043101e-02
347 1 2.20000000e-03 2500.0 2.40659065e-03 7.46043101e-02 7.94174913e-02
348 1 2.20000000e-03 2500.0 2.40659065e-03 7.46043101e-02 8.42306726e-02
349 1 2.20000000e-03 2500.0 2.40659065e-03 7.46043101e-02 8.90438539e-02
350 1 2.20000000e-03 2500.0 2.40659065e-03 7.46043101e-02 9.38570352e-02
351 1 2.20000000e-03 2500.0 2.40659065e-03 7.46043101e-02 9.86702165e-02
352 1 2.20000000e-03 2500.0 2.40659065e-03 7.46043101e-02 1.03483398e-01
353 1 2.20000000e-03 2500.0 2.40659065e-03 7.94174913e-02 2.40659065e-03
354 1 2.20000000e-03 2500.0 2.40659065e-03 7.94174913e-02 7.21977194e-03
355 1 2.20000000e-03 2500.0 2.40659065e-03 7.94174913e-02 1.20329532e-02
356 1 2.20000000e-03 2500.0 2.40659065e-03 7.94174913e-02 1.68461345e-02
357 1 2.20000000e-03 2500.0 2.40659065e-03 7.94174913e-02 2.16593158e-02
358 1 2.20000000e-03 2500.0 2.40659065e-03 7.94174913e-02 2.64724971e-02
359 1 2.20000000e-03 2500.0 2.40659065e-03 7.94174913e-02 3.12856784e-02
360 1 2.20000000e-03 2500.0 2.40659065e-03 7.94174913e-02 3.60988597e-02
361 1 2.20000000e-03 2500.0 2.40659065e-03 7.94174913e-02 4.09120410e-02
362 1 2.20000000e-03 2500.0 2.40659065e-03 7.94174913e-02 4.57252223e-02
363 1 2.20000000e-03 2500.0 2.40659065e-03 7.94174913e-02 5.05384036e-02
364 1 2.20000000e-03 2500.0 2.40659065e-03 7.94174913e-02 5.53515849e-02
365 1 2.20000000e-03 2500.0 2.40659065e-03 7.94174913e-02 6.01647662e-02
366 1 2.20000000e-03 2500.0 2.40659065e-03 7.94174913e-02 6.49779475e-02
367 1 2.20000000e-03 2500.0 2.40659065e-03 7.94174913e-02 6.97911288e-02
368 1 2.20000000e-03 2500.0 2.40659065e-03 7.94174913e-02 7.46043101e-02
369 1 2.20000000e-03 2500.0 2.40659065e-03 7.94174913e-02 7.94174913e-02
370 1 2.20000000e-03 2500.0 2.40659065e-03 7.94174913e-02 8.42306726e-02
371 1 2.20000000e-03 2500.0 2.40659065e-03 7.94174913e-02 8.90438539e-02
372 1 2.20000000e-03 2500.0 2.40659065e-03 7.94174913e-02 9.38570352e-02
373 1 2.20000000e-03 2500.0 2.40659065e-03 7.94174913e-02 9.86702165e-02
374 1 2.20000000e-03 2500.0 2.40659065e-03 7.94174913e-02 1.03483398e-01
375 1 2.20000000e-03 2500.0 2.40659065e-03 8.42306726e-02 2.40659065e-03
376 1 2.20000000e-03 2500.0 2.40659065e-03 8.42306726e-02 7.21977194e-03
377 1 2.20000000e-03 2500.0 2.40659065e-03 8.42306726e-02 1.20329532e-02
378 1 2.20000000e-03 2500.0 2.40659065e-03 8.42306726e-02 1.68461345e-02
379 1 2.20000000e-03 2500.0 2.40659065e-03 8.42306726e-02 2.16593158e-02
380 1 2.20000000e-03 2500.0 2.40659065e-03 8.42306726e-02 2.64724971e-02
381 1 2.20000000e-03 2500.0 2.40659065e-03 8.42306726e-02 3.12856784e-02
382 1 2.20000000e-03 2500.0 2.40659065e-03 8.42306726e-02 3.60988597e-02
383 1 2.20000000e-03 2500.0 2.40659065e-03 8.42306726e-02 4.09120410e-02
384 1 2.20000000e-03 2500.0 2.40659065e-03 8.42306726e-02 4.57252223e-02
385 1 2.20000000e-03 2500.0 2.40659065e-03 8.42306726e-02 5.05384036e-02
386 1 2.20000000e-03 2500.0 2.40659065e-03 8.42306726e-02 5.53515849e-02
387 1 2.20000000e-03 2500.0 2.40659065e-03 8.42306726e-02 6.01647662e-02
388 1 2.20000000e-03 2500.0 2.40659065e-03 8.42306726e-02 6.49779475e-02
389 1 2.20000000e-03 2500.0 2.40659065e-03 8.42306726e-02 6.97911288e-02
390 1 2.20000000e-03 2500.0 2.40659065e-03 8.42306726e-02 7.46043101e-02
391 1 2.20000000e-03 2500.0 2.40659065e-03 8.42306726e-02 7.94174913e-02
392 1 2.20000000e-03 2500.0 2.40659065e-03 8.42306726e-02 8.42306726e-02
393 1 2.20000000e-03 2500.0 2.40659065e-03 8.42306726e-02 8.90438539e-02
394 1 2.20000000e-03 2500.0 2.40659065e-03 8.42306726e-02 9.38570352e-02
395 1 2.20000000e-03 2500.0 2.40659065e-03 8.42306726e-02 9.86702165e-02
396 1 2.20000000e-03 2500.0 2.40659065e-03 8.42306726e-02 1.03483398e-01
397 1 2.20000000e-03 2500.0 2.40659065e-03 8.90438539e-02 2.40659065e-03
398 1 2.20000000e-03 2500.0 2.40659065e-03 8.90438539e-02 7.21977194e-03
399 1 2.20000000e-03 2500.0 2.40659065e-03 8.90438539e-02 1.20329532e-02
400 1 2.20000000e-03 2500.0 2.40659065e-03 8.90438539e-02 1.68461345e-02
401 1 2.20000000e-03 2500.0 2.40659065e-03 8.90438539e-02 2.16593158e-02
402 1 2.20000000e-03 2500.0 2.40659065e-03 8.90438539e-02 2.64724971e-02
403 1 2.20000000e-03 2500.0 2.40659065e-03 8.90438539e-02 3.12856784e-02
404 1 2.20000000e-03 2500.0 2.40659065e-03 8.90438539e-02 3.60988597e-02
405 1 2.20000000e-03 2500.0 2.40659065e-03 8.90438539e-02 4.09120410e-02
406 1 2.20000000e-03 2500.0 2.40659065e-03 8.90438539e-02 4.57252223e-02
407 1 2.20000000e-03 2500.0 2.40659065e-03 8.90438539e-02 5.05384036e-02
408 1 2.20000000e-03 2500.0 2.40659065e-03 8.90438539e-02 5.53515849e-02
409 1 2.20000000e-03 2500.0 2.40659065e-03 8.90438539e-02 6.01647662e-02
410 1 2.20000000e-03 2500.0 2.40659065e-03 8.90438539e-02 6.49779475e-02